 DBCSR| CPU Multiplication driver                                           XSMM (U)
 DBCSR| Multrec recursion limit                                              512 (U)
 DBCSR| Multiplication stack size                                           1000 (D)
 DBCSR| Maximum elements for images                                    UNLIMITED (U)
 DBCSR| Multiplicative factor virtual images                                   1 (U)
 DBCSR| Use multiplication densification                                       T (D)
 DBCSR| Multiplication size stacks                                             3 (U)
 DBCSR| Use memory pool for CPU allocation                                     F (U)
 DBCSR| Number of 3D layers                                               SINGLE (U)
 DBCSR| Use MPI memory allocation                                              F (U)
 DBCSR| Use RMA algorithm                                                      F (U)
 DBCSR| Use Communication thread                                               T (U)
 DBCSR| Communication thread load                                             83 (D)
 DBCSR| MPI: My process id                                                     0
 DBCSR| MPI: Number of processes                                              52
 DBCSR| OMP: Current number of threads                                         2
 DBCSR| OMP: Max number of threads                                             2
 DBCSR| Split modifier for TAS multiplication algorithm                  1.0E+00 (U)


  **** **** ******  **  PROGRAM STARTED AT               2025-01-16 05:39:01.820
 ***** ** ***  *** **   PROGRAM STARTED ON                           ubuntu-GPU2
 **    ****   ******    PROGRAM STARTED BY                                   zkm
 ***** **    ** ** **   PROGRAM PROCESS ID                               3479912
  **** **  *******  **  PROGRAM STARTED IN /home/zkm/CP2K/Generate_dataset/Jenni
                                           te/Elastic/elastic_cp2k/example/epsil
                                           onyy/neg

 CP2K| version string:                                       CP2K version 2024.3
 CP2K| source code revision number:                                  git:6712648
 CP2K| cp2kflags: omp libint fftw3 libxc libgrpp pexsi elpa parallel scalapack m
 CP2K|            pi_f08 cosma quip xsmm plumed2 spglib mkl sirius libvori libbq
 CP2K|            qb libvdwxc hdf5
 CP2K| is freely available from                            https://www.cp2k.org/
 CP2K| Program compiled at            2024年 10月 05日 星期六 13:00:57 CST
 CP2K| Program compiled on                                           ubuntu-GPU2
 CP2K| Program compiled for                                                local
 CP2K| Data directory path                       /home/zkm/CP2K/cp2k-2024.3/data
 CP2K| Input file name                                                geoopt.inp

 GLOBAL| Force Environment number                                              1
 GLOBAL| Basis set file name                                        BASIS_MOLOPT
 GLOBAL| Potential file name                                           POTENTIAL
 GLOBAL| MM Potential file name                                     MM_POTENTIAL
 GLOBAL| Coordinate file name                                          coord.xyz
 GLOBAL| Method name                                                        CP2K
 GLOBAL| Project name                                                     geoopt
 GLOBAL| Run type                                                        GEO_OPT
 GLOBAL| FFT library                                                       FFTW3
 GLOBAL| Diagonalization library                                            ELPA
 GLOBAL| DGEMM library                                                      BLAS
 GLOBAL| Minimum number of eigenvectors for ELPA usage                        16
 GLOBAL| Orthonormality check for eigenvectors                          DISABLED
 GLOBAL| Matrix multiplication library                                     COSMA
 GLOBAL| All-to-all communication in single precision                          F
 GLOBAL| FFTs using library dependent lengths                                  F
 GLOBAL| Grid backend                                                       AUTO
 GLOBAL| Global print level                                                  LOW
 GLOBAL| MPI I/O enabled                                                       T
 GLOBAL| Total number of message passing processes                            52
 GLOBAL| Number of threads for this process                                    2
 GLOBAL| This output is from process                                           0
 GLOBAL| Stack size for threads created by OpenMP (OMP_STACKSIZE)        default
 GLOBAL| CPU model name            Intel(R) Xeon(R) Platinum 8179M CPU @ 2.40GHz
 GLOBAL| CPUID                                                              1003

 MEMORY| system memory details [Kb]
 MEMORY|                        rank 0           min           max       average
 MEMORY| MemTotal            527974664     527974664     527974664     527974664
 MEMORY| MemFree             104843544     104843544     104843544     104843544
 MEMORY| Buffers               6978720       6978720       6978720       6978720
 MEMORY| Cached              241460736     241460736     241460736     241460736
 MEMORY| Slab                 39932716      39932716      39932716      39932716
 MEMORY| SReclaimable         37106124      37106124      37106124      37106124
 MEMORY| MemLikelyFree       390389124     390389124     390389124     390389124


 GENERATE|  Preliminary Number of Bonds generated:                             0
 GENERATE|  Achieved consistency in connectivity generation.

 *******************************************************************************
 *******************************************************************************
 **                                                                           **
 **     #####                         ##              ##                      **
 **    ##   ##            ##          ##              ##                      **
 **   ##     ##                       ##            ######                    **
 **   ##     ##  ##   ##  ##   #####  ##  ##   ####   ##    #####    #####    **
 **   ##     ##  ##   ##  ##  ##      ## ##   ##      ##   ##   ##  ##   ##   **
 **   ##  ## ##  ##   ##  ##  ##      ####     ###    ##   ######   ######    **
 **    ##  ###   ##   ##  ##  ##      ## ##      ##   ##   ##       ##        **
 **     #######   #####   ##   #####  ##  ##  ####    ##    #####   ##        **
 **           ##                                                    ##        **
 **                                                                           **
 **                                                ... make the atoms dance   **
 **                                                                           **
 **            Copyright (C) by CP2K developers group (2000-2024)             **
 **                      J. Chem. Phys. 152, 194103 (2020)                    **
 **                                                                           **
 *******************************************************************************


 TOTAL NUMBERS AND MAXIMUM NUMBERS

  Total number of            - Atomic kinds:                                   4
                             - Atoms:                                        138
                             - Shell sets:                                   138
                             - Shells:                                       620
                             - Primitive Cartesian functions:                696
                             - Cartesian basis functions:                   1554
                             - Spherical basis functions:                   1460

  Maximum angular momentum of- Orbital basis functions:                        2
                             - Local part of the GTH pseudopotential:          2
                             - Non-local part of the GTH pseudopotential:      3


 SCF PARAMETERS         Density guess:                                    ATOMIC
                        --------------------------------------------------------
                        max_scf:                                              25
                        max_scf_history:                                       0
                        max_diis:                                              4
                        --------------------------------------------------------
                        eps_scf:                                        1.00E-07
                        eps_scf_history:                                0.00E+00
                        eps_diis:                                       1.00E-01
                        eps_eigval:                                     1.00E-05
                        --------------------------------------------------------
                        level_shift [a.u.]:                             0.000000
                        --------------------------------------------------------
                        Outer loop SCF in use 
                        No variables optimised in outer loop
                        eps_scf                                         1.00E-07
                        max_scf                                               20
                        No outer loop optimization
                        step_size                                       5.00E-01

 BFGS| Use rational function optimization for step estimation:                NO
 BFGS| Use model Hessian for initial guess:                                  YES
 BFGS| Restart Hessian:                                                       NO
 BFGS| Trust radius:                                                       0.378

 *******************************************************************************
 ***                     STARTING GEOMETRY OPTIMIZATION                      ***
 ***                                   BFGS                                  ***
 *******************************************************************************

 Number of electrons:                                                        656
 Number of occupied orbitals:                                                328
 Number of molecular orbitals:                                               328

 Number of orbital functions:                                               1460
 Number of independent orbital functions:                                   1460

 Extrapolation method: initial_guess


 SCF WAVEFUNCTION OPTIMIZATION

  ----------------------------------- OT ---------------------------------------
  Minimizer      : DIIS                : direct inversion
                                         in the iterative subspace
                                         using   7 DIIS vectors
                                         safer DIIS on
  Preconditioner : FULL_KINETIC        : inversion of T + eS
  Precond_solver : DEFAULT
  stepsize       :    0.15000000                  energy_gap     :    0.20000000
  eps_taylor     :   0.10000E-15                  max_taylor     :             4
  ----------------------------------- OT ---------------------------------------

  Step     Update method      Time    Convergence         Total energy    Change
  ------------------------------------------------------------------------------
     1 OT DIIS     0.15E+00    1.1     0.01896102     -1710.3210305033 -1.71E+03
     2 OT DIIS     0.15E+00    1.8     0.01128669     -1728.7624626549 -1.84E+01
     3 OT DIIS     0.15E+00    1.8     0.00838811     -1737.8654565782 -9.10E+00
     4 OT DIIS     0.15E+00    1.9     0.00561732     -1746.4412658757 -8.58E+00
     5 OT DIIS     0.15E+00    1.7     0.00419404     -1750.8651588743 -4.42E+00
     6 OT DIIS     0.15E+00    1.8     0.00322841     -1753.8078273086 -2.94E+00
     7 OT DIIS     0.15E+00    1.8     0.00246282     -1756.0214653458 -2.21E+00
     8 OT DIIS     0.15E+00    1.7     0.00194899     -1757.4101656268 -1.39E+00
     9 OT DIIS     0.15E+00    1.7     0.00156971     -1758.3344082121 -9.24E-01
    10 OT DIIS     0.15E+00    1.7     0.00130168     -1759.0079550488 -6.74E-01
    11 OT DIIS     0.15E+00    1.8     0.00111143     -1759.4140297359 -4.06E-01
    12 OT DIIS     0.15E+00    1.8     0.00099584     -1759.7512791617 -3.37E-01
    13 OT DIIS     0.15E+00    1.8     0.00088077     -1759.9853833177 -2.34E-01
    14 OT DIIS     0.15E+00    1.7     0.00079248     -1760.2158971304 -2.31E-01
    15 OT DIIS     0.15E+00    1.7     0.00072005     -1760.3812892485 -1.65E-01
    16 OT DIIS     0.15E+00    2.1     0.00066645     -1760.5344242396 -1.53E-01
    17 OT DIIS     0.15E+00    1.8     0.00062603     -1760.6516349894 -1.17E-01
    18 OT DIIS     0.15E+00    1.7     0.00057612     -1760.7661735860 -1.15E-01
    19 OT DIIS     0.15E+00    1.7     0.00052792     -1760.8827474565 -1.17E-01
    20 OT DIIS     0.15E+00    1.8     0.00044609     -1760.9781769907 -9.54E-02
    21 OT DIIS     0.15E+00    1.8     0.00042614     -1761.0036323266 -2.55E-02
    22 OT DIIS     0.15E+00    1.7     0.00032233     -1761.0942302854 -9.06E-02
    23 OT DIIS     0.15E+00    1.8     0.00025128     -1761.1360584763 -4.18E-02
    24 OT DIIS     0.15E+00    1.8     0.00020294     -1761.1590715558 -2.30E-02
    25 OT DIIS     0.15E+00    1.9     0.00016233     -1761.1781041027 -1.90E-02

  Leaving inner SCF loop after reaching    25 steps.


  Electronic density on regular grids:       -655.9999999993        0.0000000007
  Core density on regular grids:              655.9999999997       -0.0000000003
  Total charge density on r-space grids:        0.0000000003
  Total charge density g-space grids:           0.0000000003

  Overlap energy of the core charge distribution:               0.00000068946114
  Self energy of the core charge distribution:              -4144.80997841715816
  Core Hamiltonian energy:                                   1118.35186259633429
  Hartree energy:                                            1612.96589996408602
  Exchange-correlation energy:                               -347.18563510439213
  Dispersion energy:                                           -0.50025383104979

  Total energy:                                             -1761.17810410271818

  outer SCF iter =    1 RMS gradient =   0.16E-03 energy =      -1761.1781041027

  ----------------------------------- OT ---------------------------------------
  Minimizer      : DIIS                : direct inversion
                                         in the iterative subspace
                                         using   7 DIIS vectors
                                         safer DIIS on
  Preconditioner : FULL_KINETIC        : inversion of T + eS
  Precond_solver : DEFAULT
  stepsize       :    0.15000000                  energy_gap     :    0.20000000
  eps_taylor     :   0.10000E-15                  max_taylor     :             4
  ----------------------------------- OT ---------------------------------------

  Step     Update method      Time    Convergence         Total energy    Change
  ------------------------------------------------------------------------------
     1 OT DIIS     0.15E+00    3.6     0.00040385     -1761.1840464506 -5.94E-03
     2 OT DIIS     0.15E+00    1.7     0.00030507     -1761.1940809813 -1.00E-02
     3 OT DIIS     0.15E+00    1.7     0.00021481     -1761.2049181324 -1.08E-02
     4 OT DIIS     0.15E+00    1.7     0.00015784     -1761.2115309967 -6.61E-03
     5 OT DIIS     0.15E+00    1.8     0.00010440     -1761.2164047690 -4.87E-03
     6 OT DIIS     0.15E+00    1.7     0.00006770     -1761.2188172701 -2.41E-03
     7 OT DIIS     0.15E+00    1.7     0.00004784     -1761.2196793766 -8.62E-04
     8 OT DIIS     0.15E+00    1.8     0.00003007     -1761.2201877099 -5.08E-04
     9 OT DIIS     0.15E+00    1.8     0.00002051     -1761.2203711014 -1.83E-04
    10 OT DIIS     0.15E+00    1.7     0.00001478     -1761.2204483626 -7.73E-05
    11 OT DIIS     0.15E+00    1.7     0.00001003     -1761.2204943479 -4.60E-05
    12 OT DIIS     0.15E+00    2.1     0.00000704     -1761.2205144649 -2.01E-05
    13 OT DIIS     0.15E+00    1.8     0.00000508     -1761.2205234226 -8.96E-06
    14 OT DIIS     0.15E+00    1.7     0.00000364     -1761.2205278426 -4.42E-06
    15 OT DIIS     0.15E+00    1.7     0.00000275     -1761.2205298262 -1.98E-06
    16 OT DIIS     0.15E+00    1.7     0.00000207     -1761.2205309710 -1.14E-06
    17 OT DIIS     0.15E+00    1.9     0.00000160     -1761.2205315856 -6.15E-07
    18 OT DIIS     0.15E+00    1.8     0.00000124     -1761.2205319645 -3.79E-07
    19 OT DIIS     0.15E+00    1.7     0.00000092     -1761.2205322167 -2.52E-07
    20 OT DIIS     0.15E+00    1.7     0.00000069     -1761.2205323614 -1.45E-07
    21 OT DIIS     0.15E+00    1.8     0.00000054     -1761.2205324334 -7.20E-08
    22 OT DIIS     0.15E+00    1.8     0.00000041     -1761.2205324782 -4.48E-08
    23 OT DIIS     0.15E+00    1.7     0.00000031     -1761.2205325056 -2.74E-08
    24 OT DIIS     0.15E+00    1.7     0.00000024     -1761.2205325218 -1.63E-08
    25 OT DIIS     0.15E+00    1.8     0.00000019     -1761.2205325317 -9.88E-09

  Leaving inner SCF loop after reaching    25 steps.


  Electronic density on regular grids:       -655.9999999992        0.0000000008
  Core density on regular grids:              655.9999999997       -0.0000000003
  Total charge density on r-space grids:        0.0000000004
  Total charge density g-space grids:           0.0000000004

  Overlap energy of the core charge distribution:               0.00000068946114
  Self energy of the core charge distribution:              -4144.80997841715816
  Core Hamiltonian energy:                                   1118.36206006428847
  Hartree energy:                                            1612.92658876327846
  Exchange-correlation energy:                               -347.19894980051731
  Dispersion energy:                                           -0.50025383104979

  Total energy:                                             -1761.22053253169679

  outer SCF iter =    2 RMS gradient =   0.19E-06 energy =      -1761.2205325317

  ----------------------------------- OT ---------------------------------------
  Minimizer      : DIIS                : direct inversion
                                         in the iterative subspace
                                         using   7 DIIS vectors
                                         safer DIIS on
  Preconditioner : FULL_KINETIC        : inversion of T + eS
  Precond_solver : DEFAULT
  stepsize       :    0.15000000                  energy_gap     :    0.20000000
  eps_taylor     :   0.10000E-15                  max_taylor     :             4
  ----------------------------------- OT ---------------------------------------

  Step     Update method      Time    Convergence         Total energy    Change
  ------------------------------------------------------------------------------
     1 OT DIIS     0.15E+00    3.6     0.00000015     -1761.2205325374 -5.73E-09
     2 OT DIIS     0.15E+00    1.7     0.00000013     -1761.2205325389 -1.49E-09
     3 OT DIIS     0.15E+00    1.7     0.00000011     -1761.2205325412 -2.25E-09
     4 OT DIIS     0.15E+00    1.7     0.00000007     -1761.2205325451 -3.97E-09

  *** SCF run converged in     4 steps ***


  Electronic density on regular grids:       -655.9999999993        0.0000000007
  Core density on regular grids:              655.9999999997       -0.0000000003
  Total charge density on r-space grids:        0.0000000003
  Total charge density g-space grids:           0.0000000003

  Overlap energy of the core charge distribution:               0.00000068946114
  Self energy of the core charge distribution:              -4144.80997841715816
  Core Hamiltonian energy:                                   1118.36202083163425
  Hartree energy:                                            1612.92662245975589
  Exchange-correlation energy:                               -347.19894427777785
  Dispersion energy:                                           -0.50025383104979

  Total energy:                                             -1761.22053254513412

  outer SCF iter =    3 RMS gradient =   0.66E-07 energy =      -1761.2205325451
  outer SCF loop converged in   3 iterations or   54 steps


 ENERGY| Total FORCE_EVAL ( QS ) energy [a.u.]:            -1761.220532546372851

 ATOMIC FORCES in [a.u.]

 # Atom   Kind   Element          X              Y              Z
      1      1      Ca          0.00191454     0.00497734     0.00282620
      2      1      Ca          0.00011109     0.00025153     0.00019876
      3      1      Ca          0.00006477     0.00058461     0.00006634
      4      1      Ca          0.00086869     0.01418439    -0.00003866
      5      2      Si          0.00013837     0.00047333    -0.00019934
      6      2      Si         -0.00137214     0.00770240     0.00643639
      7      2      Si         -0.00149655     0.00167916     0.00080698
      8      3      O           0.00725302     0.01970781     0.00156626
      9      3      O           0.00009153    -0.00206592     0.00014309
     10      3      O           0.00539540     0.01112632     0.00282913
     11      3      O          -0.00153371    -0.00248490    -0.00384388
     12      3      O          -0.03797953     0.05561958     0.01695633
     13      3      O          -0.00070828     0.00190628     0.00055444
     14      3      O           0.00044637    -0.00302371    -0.00110786
     15      3      O           0.00283012    -0.00319805     0.00115407
     16      3      O           0.00044242    -0.00189618     0.00001129
     17      3      O           0.00018782     0.00120502     0.00049123
     18      3      O          -0.00078928    -0.00363492    -0.00044678
     19      3      O          -0.00003678    -0.00374586    -0.00043771
     20      3      O          -0.00121786     0.00468956     0.00028803
     21      3      O          -0.00657037     0.00905304     0.00286833
     22      3      O           0.00694768     0.01737589    -0.00863632
     23      3      O          -0.00096383     0.00191791     0.00146302
     24      1      Ca          0.00030372     0.00037384     0.00095888
     25      1      Ca          0.00043520     0.01415185     0.00884050
     26      1      Ca         -0.00242073     0.00851918     0.00135934
     27      1      Ca         -0.00032247    -0.00030076     0.00043827
     28      2      Si         -0.01956772     0.05166632     0.02102030
     29      2      Si          0.00073470    -0.00073768     0.00078720
     30      2      Si          0.00186398    -0.00091598     0.00850022
     31      3      O          -0.00230917     0.00208171    -0.00078197
     32      3      O           0.00202376     0.01011520    -0.00059418
     33      3      O          -0.00030039    -0.00153305    -0.00024881
     34      3      O          -0.00200131    -0.00050546    -0.00045733
     35      3      O           0.00203134     0.00079484    -0.00026748
     36      3      O           0.00099503     0.01165664    -0.00309192
     37      3      O          -0.00074948    -0.00188955    -0.00106930
     38      3      O           0.00320417     0.01377092    -0.00040169
     39      3      O           0.00007953    -0.00025282    -0.00077191
     40      3      O          -0.00062605     0.00566386     0.00059347
     41      3      O           0.00002160    -0.00081501    -0.00089352
     42      3      O          -0.00068205     0.00014727    -0.00016946
     43      3      O          -0.00062478     0.00045910    -0.00136561
     44      3      O          -0.00212836     0.00046420     0.00005427
     45      3      O          -0.00318967    -0.00238431     0.00103784
     46      3      O           0.00092985    -0.00251266    -0.00090277
     47      1      Ca          0.00083163    -0.00158646    -0.00144519
     48      1      Ca         -0.00003619    -0.00006234    -0.00112047
     49      1      Ca         -0.00068879    -0.01488705    -0.00853145
     50      1      Ca          0.00385189    -0.01120729    -0.00037470
     51      1      Ca          0.00019481     0.00058692    -0.00016215
     52      2      Si          0.02449798    -0.06291064    -0.02043832
     53      2      Si         -0.00068020     0.00058890    -0.00076153
     54      2      Si         -0.00199085     0.00109645    -0.00732135
     55      3      O          -0.00291271     0.00052906     0.00030144
     56      3      O          -0.00062311    -0.01117644     0.00025082
     57      3      O          -0.00219172     0.00009540    -0.00010664
     58      3      O           0.00029089    -0.00056459     0.00063540
     59      3      O          -0.00054614    -0.00018661    -0.00052067
     60      3      O           0.00037275    -0.00813480     0.00371580
     61      3      O          -0.00086705    -0.00111222    -0.00002283
     62      3      O           0.00224780    -0.00954055     0.00081420
     63      3      O          -0.00103185    -0.00276869     0.00102757
     64      3      O           0.00243070    -0.00192334     0.00139113
     65      3      O          -0.00114982    -0.00286210     0.00039637
     66      3      O           0.00123854    -0.00320651    -0.00054093
     67      3      O          -0.00275018    -0.00082455     0.00074352
     68      3      O          -0.00127383     0.00188798     0.00040602
     69      3      O          -0.00027425     0.00499441    -0.00175093
     70      3      O          -0.00228103     0.00343874     0.00123518
     71      1      Ca         -0.00152592    -0.00453798    -0.00306071
     72      1      Ca         -0.00000767    -0.00019937    -0.00007052
     73      1      Ca         -0.00021538    -0.00054017     0.00025846
     74      1      Ca         -0.00013723    -0.01147027     0.00003538
     75      2      Si         -0.00024436    -0.00035039     0.00052605
     76      2      Si          0.00027266    -0.00822321    -0.00579105
     77      2      Si          0.00126012    -0.00141059    -0.00069168
     78      3      O          -0.01257381    -0.01827686    -0.00497989
     79      3      O          -0.00026353     0.00231793    -0.00010601
     80      3      O          -0.00693233    -0.01260154    -0.00266803
     81      3      O          -0.00016812     0.00076506     0.00365778
     82      3      O           0.03942976    -0.03996112    -0.01713001
     83      3      O          -0.00142698    -0.00057870    -0.00032929
     84      3      O          -0.00251497     0.00019165     0.00048064
     85      3      O          -0.00195426     0.00521712    -0.00029209
     86      3      O          -0.00059375    -0.00076213    -0.00034966
     87      3      O           0.00149633     0.00057386     0.00057186
     88      3      O          -0.00166655    -0.00030793    -0.00000613
     89      3      O          -0.00057427     0.00081591    -0.00023595
     90      3      O           0.00134320    -0.00630470    -0.00052875
     91      3      O           0.00407855    -0.00823157    -0.00095537
     92      3      O          -0.00656841    -0.01349226     0.00679893
     93      3      O           0.00171170    -0.00181246    -0.00113252
     94      1      Ca          0.00000530    -0.00121622     0.00210954
     95      4      H          -0.00092164    -0.00026711    -0.00098644
     96      4      H           0.00073124     0.00199631    -0.00202576
     97      4      H          -0.00114438    -0.00076980    -0.00027260
     98      4      H           0.00264229    -0.00155591    -0.00073341
     99      4      H          -0.00299370    -0.00420217     0.00335820
    100      4      H          -0.00226348     0.00486956     0.00184346
    101      4      H           0.00061176    -0.00024801    -0.00082982
    102      4      H          -0.00034906     0.00025868    -0.00032728
    103      4      H           0.00010388     0.00071556     0.00028741
    104      4      H           0.00030568     0.00009767     0.00028913
    105      4      H           0.00021375     0.00047079    -0.00010682
    106      4      H          -0.00013877     0.00025797    -0.00003210
    107      4      H           0.00020644    -0.00024912    -0.00052077
    108      4      H           0.00051969     0.00089369    -0.00084714
    109      4      H           0.00022402    -0.00011235     0.00020674
    110      4      H          -0.00130505     0.00180487     0.00059324
    111      4      H          -0.00002781    -0.00080654    -0.00000240
    112      4      H           0.00020287    -0.00037486    -0.00001857
    113      4      H          -0.00027410    -0.00071449    -0.00009530
    114      4      H           0.00018594    -0.00052328     0.00014798
    115      4      H          -0.00034868    -0.00042575     0.00050860
    116      4      H          -0.00063809     0.00033234     0.00069241
    117      4      H           0.00087531    -0.00157329    -0.00061799
    118      4      H          -0.00034597    -0.00005239    -0.00032839
    119      4      H           0.00017842    -0.00035372     0.00042409
    120      4      H           0.00293976    -0.00010095     0.00114315
    121      4      H           0.00120335     0.00024061     0.00061638
    122      4      H          -0.00248677     0.00216934     0.00070275
    123      4      H           0.00093386    -0.00427537    -0.00106583
    124      4      H           0.00230861     0.00274291    -0.00249821
    125      4      H           0.00000340     0.00003795     0.00016471
    126      4      H          -0.00099249     0.00112225     0.00086342
    127      4      H           0.00005533    -0.00000312     0.00008806
    128      4      H           0.00002244     0.00004177     0.00011649
    129      4      H           0.00003631     0.00018100     0.00003825
    130      4      H           0.00104495     0.00057079     0.00025903
    131      4      H          -0.00014604     0.00040425     0.00052097
    132      4      H           0.00005516    -0.00039525    -0.00000086
    133      4      H          -0.00085170    -0.00054414     0.00013555
    134      4      H           0.00022679    -0.00039530    -0.00057957
    135      4      H          -0.00051630    -0.00010373    -0.00015726
    136      4      H          -0.00006614     0.00000955    -0.00009429
    137      4      H          -0.00010157    -0.00012077    -0.00016615
    138      4      H           0.00014392    -0.00063655    -0.00009766
 SUM OF ATOMIC FORCES          -0.01932302     0.00070390     0.00105036     0.01936434

 STRESS| Analytical stress tensor [GPa]
 STRESS|                        x                   y                   z
 STRESS|      x        1.13752891051E+00  -2.05427236885E-01  -1.44933930562E-01
 STRESS|      y       -2.05427236885E-01   2.20761793673E+00   2.19397453424E-01
 STRESS|      z       -1.44933930562E-01   2.19397453424E-01   5.59393170417E-01
 STRESS| 1/3 Trace                                             1.30151333922E+00
 STRESS| Determinant                                           1.29309418882E+00

 STRESS| Eigenvectors and eigenvalues of the analytical stress tensor [GPa]
 STRESS|                        1                   2                   3
 STRESS| Eigenvalues   5.07888489118E-01   1.11669828543E+00   2.27995324311E+00
 STRESS|      x           0.191124292368      0.962520904267     -0.192418849690
 STRESS|      y          -0.102901237842      0.214599880024      0.971266300632
 STRESS|      z           0.976157180027     -0.165832446592      0.140059842710

 OPT| **************************************************************************
 OPT| Step number                                                              0
 OPT| Optimization method                                                   BFGS
 OPT| Total energy [hartree]                                    -1761.2205325464
 OPT| Used time [s]                                                       99.851
 OPT| **************************************************************************
 OPT| Estimated peak process memory [MiB]                                    453

 --------------------------
 OPTIMIZATION STEP:      1
 --------------------------

 Number of electrons:                                                        656
 Number of occupied orbitals:                                                328
 Number of molecular orbitals:                                               328

 Number of orbital functions:                                               1460
 Number of independent orbital functions:                                   1460

 Extrapolation method: ASPC


 SCF WAVEFUNCTION OPTIMIZATION

  ----------------------------------- OT ---------------------------------------
  Minimizer      : DIIS                : direct inversion
                                         in the iterative subspace
                                         using   7 DIIS vectors
                                         safer DIIS on
  Preconditioner : FULL_KINETIC        : inversion of T + eS
  Precond_solver : DEFAULT
  stepsize       :    0.15000000                  energy_gap     :    0.20000000
  eps_taylor     :   0.10000E-15                  max_taylor     :             4
  ----------------------------------- OT ---------------------------------------

  Step     Update method      Time    Convergence         Total energy    Change
  ------------------------------------------------------------------------------
     1 OT DIIS     0.15E+00    1.0     0.00028427     -1761.2311646317 -1.76E+03
     2 OT DIIS     0.15E+00    1.7     0.00018228     -1761.2358181757 -4.65E-03
     3 OT DIIS     0.15E+00    2.1     0.00010285     -1761.2392381775 -3.42E-03
     4 OT DIIS     0.15E+00    1.7     0.00005690     -1761.2409289801 -1.69E-03
     5 OT DIIS     0.15E+00    1.7     0.00003725     -1761.2414871554 -5.58E-04
     6 OT DIIS     0.15E+00    1.8     0.00002557     -1761.2417321390 -2.45E-04
     7 OT DIIS     0.15E+00    1.9     0.00001603     -1761.2418672585 -1.35E-04
     8 OT DIIS     0.15E+00    1.7     0.00001026     -1761.2419179265 -5.07E-05
     9 OT DIIS     0.15E+00    1.7     0.00000710     -1761.2419356026 -1.77E-05
    10 OT DIIS     0.15E+00    1.7     0.00000464     -1761.2419447964 -9.19E-06
    11 OT DIIS     0.15E+00    1.7     0.00000314     -1761.2419487555 -3.96E-06
    12 OT DIIS     0.15E+00    1.7     0.00000213     -1761.2419506115 -1.86E-06
    13 OT DIIS     0.15E+00    1.7     0.00000143     -1761.2419515013 -8.90E-07
    14 OT DIIS     0.15E+00    1.7     0.00000096     -1761.2419518990 -3.98E-07
    15 OT DIIS     0.15E+00    1.7     0.00000067     -1761.2419520585 -1.59E-07
    16 OT DIIS     0.15E+00    1.8     0.00000046     -1761.2419521413 -8.28E-08
    17 OT DIIS     0.15E+00    1.7     0.00000033     -1761.2419521741 -3.27E-08
    18 OT DIIS     0.15E+00    1.7     0.00000025     -1761.2419521905 -1.64E-08
    19 OT DIIS     0.15E+00    1.7     0.00000018     -1761.2419522005 -1.00E-08
    20 OT DIIS     0.15E+00    1.9     0.00000014     -1761.2419522052 -4.72E-09
    21 OT DIIS     0.15E+00    1.7     0.00000010     -1761.2419522080 -2.84E-09
    22 OT DIIS     0.15E+00    1.7     0.00000008     -1761.2419522098 -1.78E-09

  *** SCF run converged in    22 steps ***


  Electronic density on regular grids:       -655.9999999994        0.0000000006
  Core density on regular grids:              655.9999999997       -0.0000000003
  Total charge density on r-space grids:        0.0000000003
  Total charge density g-space grids:           0.0000000003

  Overlap energy of the core charge distribution:               0.00000063336452
  Self energy of the core charge distribution:              -4144.80997841715816
  Core Hamiltonian energy:                                   1118.06163868476642
  Hartree energy:                                            1613.13669642703871
  Exchange-correlation energy:                               -347.13007512653292
  Dispersion energy:                                           -0.50023441131116

  Total energy:                                             -1761.24195220983233

  outer SCF iter =    1 RMS gradient =   0.76E-07 energy =      -1761.2419522098
  outer SCF loop converged in   1 iterations or   22 steps


 ENERGY| Total FORCE_EVAL ( QS ) energy [a.u.]:            -1761.241952210783666

 ATOMIC FORCES in [a.u.]

 # Atom   Kind   Element          X              Y              Z
      1      1      Ca         -0.00157696    -0.00227166    -0.00127365
      2      1      Ca         -0.00086860     0.00076302    -0.00052982
      3      1      Ca         -0.00048139     0.00010271    -0.00101610
      4      1      Ca          0.00192530     0.00051450    -0.00200396
      5      2      Si          0.00075403     0.00038054     0.00018777
      6      2      Si          0.00045844    -0.00184419     0.00047783
      7      2      Si          0.00194274    -0.00027555    -0.00086800
      8      3      O           0.00483117     0.00304279     0.00376292
      9      3      O           0.00030346    -0.00237858     0.00024452
     10      3      O           0.00275511     0.00334174    -0.00113802
     11      3      O          -0.00243836     0.00248416     0.00220707
     12      3      O          -0.02308735     0.03042177     0.00715727
     13      3      O          -0.00252396     0.00145620     0.00075478
     14      3      O          -0.00051017     0.00301765     0.00054607
     15      3      O           0.00199831    -0.00059534     0.00049339
     16      3      O          -0.00068177     0.00005063     0.00035233
     17      3      O          -0.00101928     0.00108539     0.00043629
     18      3      O           0.00277016     0.00210387     0.00085756
     19      3      O          -0.00053814     0.00096466     0.00054145
     20      3      O          -0.00188629     0.00013043     0.00221728
     21      3      O          -0.00001630     0.00183205     0.00023154
     22      3      O          -0.00073351     0.00273819    -0.00255658
     23      3      O          -0.00059179     0.00075898    -0.00101785
     24      1      Ca         -0.00075407     0.00024204    -0.00017661
     25      1      Ca          0.00085904     0.00037792     0.00056852
     26      1      Ca         -0.00165969     0.00076019     0.00036415
     27      1      Ca         -0.00041432     0.00102689     0.00081213
     28      2      Si         -0.01469292     0.01926518     0.01280287
     29      2      Si          0.00159712    -0.00017407     0.00077676
     30      2      Si         -0.00088454     0.00137734    -0.00003231
     31      3      O          -0.00033673    -0.00110295     0.00041771
     32      3      O           0.00025447     0.00492895    -0.00065190
     33      3      O           0.00053885    -0.00102034    -0.00078994
     34      3      O          -0.00053740     0.00188649     0.00143210
     35      3      O           0.00081345     0.00138839     0.00046952
     36      3      O          -0.00059915    -0.00279021    -0.00003483
     37      3      O           0.00032079     0.00068429    -0.00137364
     38      3      O           0.00221086     0.00707998    -0.00062928
     39      3      O          -0.00120676     0.00176636     0.00150158
     40      3      O           0.00341143     0.00017371     0.00323579
     41      3      O          -0.00098206     0.00109731     0.00049771
     42      3      O           0.00081897     0.00081606     0.00008767
     43      3      O           0.00068048     0.00023695     0.00057190
     44      3      O          -0.00054604     0.00112074     0.00028068
     45      3      O          -0.00123362     0.00067751     0.00029631
     46      3      O          -0.00007036     0.00177366     0.00037194
     47      1      Ca         -0.00002114    -0.00120030     0.00138750
     48      1      Ca          0.00044265    -0.00149348     0.00048647
     49      1      Ca         -0.00113937    -0.00103598    -0.00113908
     50      1      Ca          0.00157768    -0.00123084    -0.00062072
     51      1      Ca         -0.00001030    -0.00147928    -0.00058417
     52      2      Si          0.01788652    -0.02585148    -0.01056737
     53      2      Si         -0.00068861    -0.00059633    -0.00134812
     54      2      Si         -0.00063562     0.00016276    -0.00083017
     55      3      O          -0.00123272    -0.00031598    -0.00016693
     56      3      O          -0.00118578    -0.00714435    -0.00036009
     57      3      O          -0.00028082    -0.00098617     0.00024728
     58      3      O          -0.00120343    -0.00203512    -0.00152159
     59      3      O          -0.00098324    -0.00019889    -0.00093144
     60      3      O          -0.00085971    -0.00132981    -0.00145002
     61      3      O          -0.00070383    -0.00104576     0.00048529
     62      3      O          -0.00130633    -0.00600066     0.00019333
     63      3      O          -0.00106572    -0.00378235    -0.00010942
     64      3      O          -0.00120086    -0.00212179    -0.00138697
     65      3      O          -0.00081788    -0.00120138    -0.00035263
     66      3      O          -0.00017516    -0.00208761     0.00036620
     67      3      O          -0.00099609    -0.00066946    -0.00047735
     68      3      O          -0.00050988    -0.00054921     0.00024782
     69      3      O          -0.00098171    -0.00100314    -0.00033760
     70      3      O          -0.00062480    -0.00039805    -0.00035965
     71      1      Ca          0.00148081     0.00139750     0.00264453
     72      1      Ca          0.00027675    -0.00124868     0.00044231
     73      1      Ca          0.00068759     0.00077934     0.00078191
     74      1      Ca         -0.00153206     0.00004301     0.00197603
     75      2      Si         -0.00051625     0.00260283     0.00059941
     76      2      Si          0.00086342     0.00113604     0.00011438
     77      2      Si         -0.00325855    -0.00011008     0.00102710
     78      3      O          -0.00837114    -0.00273245    -0.00582855
     79      3      O          -0.00085565    -0.00020241    -0.00083914
     80      3      O          -0.00178302    -0.00670946     0.00014146
     81      3      O           0.00006692    -0.00313644    -0.00189925
     82      3      O           0.02379094    -0.02057421    -0.00854630
     83      3      O           0.00067718    -0.00069476    -0.00175237
     84      3      O          -0.00093460    -0.00080027    -0.00192977
     85      3      O          -0.00146246     0.00027112    -0.00032357
     86      3      O           0.00020607    -0.00084426     0.00077609
     87      3      O           0.00191435    -0.00143441    -0.00044594
     88      3      O          -0.00241869    -0.00209208    -0.00078204
     89      3      O          -0.00061991    -0.00237949    -0.00007929
     90      3      O           0.00198425    -0.00231793     0.00187010
     91      3      O           0.00137318    -0.00105198    -0.00004240
     92      3      O          -0.00113218    -0.00556752    -0.00015287
     93      3      O           0.00118463     0.00034472     0.00111720
     94      1      Ca          0.00001941     0.00095557    -0.00129451
     95      4      H          -0.00025604     0.00191033    -0.00066540
     96      4      H           0.00022135     0.00186950    -0.00183517
     97      4      H          -0.00139691     0.00121259     0.00122866
     98      4      H          -0.00133383     0.00050541    -0.00040703
     99      4      H           0.00056431     0.00217483     0.00125983
    100      4      H           0.00111072     0.00215543     0.00005252
    101      4      H           0.00042880     0.00007253     0.00024982
    102      4      H           0.00049292     0.00024046     0.00032783
    103      4      H          -0.00035962     0.00013978    -0.00024685
    104      4      H           0.00003484     0.00063705    -0.00035233
    105      4      H          -0.00073905     0.00022984    -0.00006581
    106      4      H          -0.00079233    -0.00014278     0.00001365
    107      4      H           0.00002709    -0.00001165    -0.00084472
    108      4      H          -0.00089579    -0.00082888     0.00056147
    109      4      H          -0.00055212     0.00004863     0.00020147
    110      4      H           0.00065386    -0.00097162    -0.00072623
    111      4      H          -0.00051093    -0.00009196     0.00004947
    112      4      H          -0.00058548    -0.00036773     0.00022632
    113      4      H          -0.00010621     0.00058039    -0.00013200
    114      4      H          -0.00086908     0.00032566    -0.00003452
    115      4      H          -0.00051221     0.00113932     0.00049793
    116      4      H          -0.00024964     0.00164427    -0.00024125
    117      4      H          -0.00008508     0.00041003     0.00024409
    118      4      H           0.00021104    -0.00021235     0.00019413
    119      4      H          -0.00060229    -0.00144535    -0.00045054
    120      4      H           0.00101468    -0.00105588    -0.00089007
    121      4      H           0.00058903    -0.00045560    -0.00075243
    122      4      H           0.00032138    -0.00078843     0.00113939
    123      4      H          -0.00054543    -0.00026231    -0.00027291
    124      4      H          -0.00196922    -0.00366373     0.00106721
    125      4      H          -0.00057266    -0.00033627    -0.00028932
    126      4      H           0.00007247     0.00002165    -0.00049809
    127      4      H           0.00001707    -0.00017965    -0.00015540
    128      4      H           0.00026092     0.00007431    -0.00026698
    129      4      H          -0.00045890    -0.00027513    -0.00058921
    130      4      H          -0.00044389     0.00148447     0.00088539
    131      4      H           0.00027950    -0.00061965    -0.00083036
    132      4      H           0.00037042     0.00022028     0.00007823
    133      4      H           0.00082382    -0.00109709    -0.00079075
    134      4      H          -0.00021984    -0.00018314     0.00029599
    135      4      H           0.00016795    -0.00001819    -0.00033056
    136      4      H          -0.00011638     0.00028940     0.00026982
    137      4      H          -0.00065028    -0.00075370    -0.00023873
    138      4      H          -0.00030831    -0.00002639     0.00000574
 SUM OF ATOMIC FORCES          -0.02417187    -0.01494591    -0.00374970     0.02866566

 STRESS| Analytical stress tensor [GPa]
 STRESS|                        x                   y                   z
 STRESS|      x        7.10109622303E-01  -2.21573134039E-01  -1.10495886770E-01
 STRESS|      y       -2.21573134039E-01   1.62898305094E+00   7.21410575770E-02
 STRESS|      z       -1.10495886770E-01   7.21410575770E-02   5.26224801257E-01
 STRESS| 1/3 Trace                                             9.55105824833E-01
 STRESS| Determinant                                           5.62827147026E-01

 STRESS| Eigenvectors and eigenvalues of the analytical stress tensor [GPa]
 STRESS|                        1                   2                   3
 STRESS| Eigenvalues   4.73570441382E-01   7.04307268202E-01   1.68743976492E+00
 STRESS|      x           0.445679351196      0.865361435255     -0.229171338284
 STRESS|      y           0.029604791514      0.241614380157      0.969920639857
 STRESS|      z           0.894703007839     -0.439058171174      0.082063695313

 OPT| **************************************************************************
 OPT| Step number                                                              1
 OPT| Optimization method                                                   BFGS
 OPT| Total energy [hartree]                                    -1761.2419522108
 OPT| Effective energy change [hartree]                            -0.0214196644
 OPT| Predicted energy change [hartree]                            -0.0180703508
 OPT| Scaling factor                                                0.0000000000
 OPT| Step size                                                     0.1256745121
 OPT| Trust radius                                                  0.3779452266
 OPT| Decrease in energy                                                     YES
 OPT| Used time [s]                                                       42.452
 OPT|
 OPT| Maximum step size                                             0.1256745121
 OPT| Convergence limit for maximum step size                       0.0030000000
 OPT| Maximum step size is converged                                          NO
 OPT|
 OPT| RMS step size                                                 0.0221156799
 OPT| Convergence limit for RMS step size                           0.0015000000
 OPT| RMS step size is converged                                              NO
 OPT|
 OPT| Maximum gradient                                              0.0304217692
 OPT| Convergence limit for maximum gradient                        0.0004500000
 OPT| Maximum gradient is converged                                           NO
 OPT|
 OPT| RMS gradient                                                  0.0035851808
 OPT| Convergence limit for RMS gradient                            0.0003000000
 OPT| RMS gradient is converged                                               NO
 OPT| **************************************************************************
 OPT| Estimated peak process memory after this step [MiB]                    508

 --------------------------
 OPTIMIZATION STEP:      2
 --------------------------

 Number of electrons:                                                        656
 Number of occupied orbitals:                                                328
 Number of molecular orbitals:                                               328

 Number of orbital functions:                                               1460
 Number of independent orbital functions:                                   1460

 Extrapolation method: ASPC


 SCF WAVEFUNCTION OPTIMIZATION

  ----------------------------------- OT ---------------------------------------
  Minimizer      : DIIS                : direct inversion
                                         in the iterative subspace
                                         using   7 DIIS vectors
                                         safer DIIS on
  Preconditioner : FULL_KINETIC        : inversion of T + eS
  Precond_solver : DEFAULT
  stepsize       :    0.15000000                  energy_gap     :    0.20000000
  eps_taylor     :   0.10000E-15                  max_taylor     :             4
  ----------------------------------- OT ---------------------------------------

  Step     Update method      Time    Convergence         Total energy    Change
  ------------------------------------------------------------------------------
     1 OT DIIS     0.15E+00    1.0     0.00026133     -1761.2393178541 -1.76E+03
     2 OT DIIS     0.15E+00    1.8     0.00016267     -1761.2431921497 -3.87E-03
     3 OT DIIS     0.15E+00    1.7     0.00009467     -1761.2458117116 -2.62E-03
     4 OT DIIS     0.15E+00    1.8     0.00005112     -1761.2472779870 -1.47E-03
     5 OT DIIS     0.15E+00    1.7     0.00003393     -1761.2477286531 -4.51E-04
     6 OT DIIS     0.15E+00    1.7     0.00002334     -1761.2479347335 -2.06E-04
     7 OT DIIS     0.15E+00    1.7     0.00001467     -1761.2480480946 -1.13E-04
     8 OT DIIS     0.15E+00    1.7     0.00000940     -1761.2480903483 -4.23E-05
     9 OT DIIS     0.15E+00    1.8     0.00000647     -1761.2481052559 -1.49E-05
    10 OT DIIS     0.15E+00    1.7     0.00000419     -1761.2481130009 -7.74E-06
    11 OT DIIS     0.15E+00    1.7     0.00000282     -1761.2481162109 -3.21E-06
    12 OT DIIS     0.15E+00    1.7     0.00000192     -1761.2481177172 -1.51E-06
    13 OT DIIS     0.15E+00    1.8     0.00000130     -1761.2481184272 -7.10E-07
    14 OT DIIS     0.15E+00    1.7     0.00000087     -1761.2481187568 -3.30E-07
    15 OT DIIS     0.15E+00    1.7     0.00000061     -1761.2481188883 -1.32E-07
    16 OT DIIS     0.15E+00    1.7     0.00000042     -1761.2481189563 -6.80E-08
    17 OT DIIS     0.15E+00    1.7     0.00000031     -1761.2481189841 -2.78E-08
    18 OT DIIS     0.15E+00    1.8     0.00000023     -1761.2481189981 -1.41E-08
    19 OT DIIS     0.15E+00    1.7     0.00000017     -1761.2481190068 -8.66E-09
    20 OT DIIS     0.15E+00    1.7     0.00000013     -1761.2481190109 -4.07E-09
    21 OT DIIS     0.15E+00    1.7     0.00000010     -1761.2481190133 -2.42E-09

  *** SCF run converged in    21 steps ***


  Electronic density on regular grids:       -655.9999999993        0.0000000007
  Core density on regular grids:              655.9999999997       -0.0000000003
  Total charge density on r-space grids:        0.0000000003
  Total charge density g-space grids:           0.0000000003

  Overlap energy of the core charge distribution:               0.00000061065696
  Self energy of the core charge distribution:              -4144.80997841715816
  Core Hamiltonian energy:                                   1117.88995420103288
  Hartree energy:                                            1613.26117670917279
  Exchange-correlation energy:                               -347.08905915365312
  Dispersion energy:                                           -0.50021296333124

  Total energy:                                             -1761.24811901328007

  outer SCF iter =    1 RMS gradient =   0.95E-07 energy =      -1761.2481190133
  outer SCF loop converged in   1 iterations or   21 steps


 ENERGY| Total FORCE_EVAL ( QS ) energy [a.u.]:            -1761.248119014814165

 ATOMIC FORCES in [a.u.]

 # Atom   Kind   Element          X              Y              Z
      1      1      Ca          0.00014357     0.00009717     0.00062465
      2      1      Ca          0.00034120    -0.00110344     0.00024075
      3      1      Ca          0.00001926    -0.00049013     0.00036362
      4      1      Ca          0.00086096    -0.00039219     0.00082471
      5      2      Si         -0.00059641     0.00074966     0.00023178
      6      2      Si         -0.00138590    -0.00094445    -0.00143851
      7      2      Si         -0.00094043    -0.00030765     0.00129826
      8      3      O           0.00114182    -0.00634358     0.00075340
      9      3      O          -0.00071309    -0.00157300    -0.00043247
     10      3      O          -0.00040659    -0.00227098    -0.00197573
     11      3      O           0.00094357     0.00022488    -0.00070961
     12      3      O          -0.00850753     0.00781558     0.00302866
     13      3      O           0.00051906    -0.00068761    -0.00074546
     14      3      O          -0.00095261     0.00470157     0.00063114
     15      3      O           0.00127019     0.00021716     0.00030695
     16      3      O          -0.00085810    -0.00016266     0.00031374
     17      3      O          -0.00075994     0.00035800    -0.00076339
     18      3      O          -0.00226550    -0.00117721    -0.00072117
     19      3      O           0.00027256     0.00001925    -0.00091193
     20      3      O          -0.00177074     0.00100842    -0.00019666
     21      3      O          -0.00008405    -0.00238062    -0.00117070
     22      3      O          -0.00224170    -0.00112631     0.00228206
     23      3      O           0.00055803    -0.00162350    -0.00058040
     24      1      Ca         -0.00058689     0.00139824     0.00015735
     25      1      Ca         -0.00049362    -0.00124240    -0.00154465
     26      1      Ca          0.00038826    -0.00092034    -0.00055747
     27      1      Ca          0.00030271     0.00103532    -0.00104282
     28      2      Si         -0.00786991     0.00632683     0.00480693
     29      2      Si          0.00013768     0.00052118    -0.00044074
     30      2      Si         -0.00131258     0.00196317    -0.00324618
     31      3      O           0.00049459     0.00084869     0.00047633
     32      3      O          -0.00204733    -0.00020277    -0.00045305
     33      3      O           0.00035007    -0.00028799     0.00077309
     34      3      O          -0.00071496     0.00248122     0.00035681
     35      3      O           0.00218325    -0.00002213    -0.00005608
     36      3      O           0.00007635    -0.00464412     0.00173328
     37      3      O          -0.00044742    -0.00121133     0.00080745
     38      3      O          -0.00032241     0.00302236    -0.00151587
     39      3      O          -0.00008648    -0.00117757     0.00046572
     40      3      O           0.00153477    -0.00023710     0.00058611
     41      3      O          -0.00069201     0.00091498     0.00055339
     42      3      O           0.00058069    -0.00016561     0.00045845
     43      3      O           0.00010474    -0.00004908     0.00066078
     44      3      O           0.00032330     0.00053973    -0.00070373
     45      3      O           0.00044430     0.00117138     0.00015910
     46      3      O          -0.00156551     0.00142029     0.00020949
     47      1      Ca         -0.00110427     0.00111686     0.00078912
     48      1      Ca         -0.00035303    -0.00148203     0.00029738
     49      1      Ca         -0.00023938     0.00017117     0.00127019
     50      1      Ca         -0.00078124     0.00008595     0.00050612
     51      1      Ca         -0.00072386    -0.00171141     0.00084747
     52      2      Si          0.01036647    -0.00762543    -0.00460883
     53      2      Si          0.00014714     0.00011912     0.00016363
     54      2      Si          0.00154762    -0.00426469     0.00332866
     55      3      O          -0.00015195    -0.00083399    -0.00084971
     56      3      O          -0.00068124    -0.00162761     0.00125621
     57      3      O           0.00005570    -0.00031873    -0.00034653
     58      3      O          -0.00074072    -0.00005326     0.00039237
     59      3      O          -0.00099583     0.00075849    -0.00114015
     60      3      O          -0.00124091     0.00516046    -0.00021465
     61      3      O          -0.00064335    -0.00083485    -0.00058739
     62      3      O           0.00020521    -0.00302295     0.00156169
     63      3      O          -0.00054397     0.00317112    -0.00129080
     64      3      O          -0.00284515    -0.00097333    -0.00125107
     65      3      O           0.00095687     0.00042696    -0.00044572
     66      3      O           0.00048161     0.00101814    -0.00068763
     67      3      O           0.00024974     0.00044312    -0.00027414
     68      3      O          -0.00040394    -0.00104418     0.00008228
     69      3      O          -0.00097281     0.00024971     0.00061093
     70      3      O           0.00165461    -0.00150563    -0.00093368
     71      1      Ca         -0.00146404    -0.00060201    -0.00046177
     72      1      Ca         -0.00074315    -0.00022976    -0.00001122
     73      1      Ca         -0.00072404    -0.00096991    -0.00112612
     74      1      Ca         -0.00115264    -0.00005099    -0.00049355
     75      2      Si          0.00054595     0.00099568    -0.00039310
     76      2      Si          0.00266087     0.00029411     0.00110511
     77      2      Si          0.00043360    -0.00008309     0.00003007
     78      3      O          -0.00107793     0.00221681     0.00037001
     79      3      O          -0.00009804    -0.00035555     0.00052397
     80      3      O          -0.00089422     0.00203546     0.00058872
     81      3      O           0.00050004     0.00078640     0.00045514
     82      3      O           0.00992616    -0.00419700    -0.00366582
     83      3      O          -0.00121887    -0.00132532     0.00050565
     84      3      O          -0.00040733    -0.00343414    -0.00049795
     85      3      O          -0.00047637    -0.00050043     0.00011824
     86      3      O          -0.00001565     0.00047841    -0.00078545
     87      3      O           0.00109700     0.00006331     0.00139088
     88      3      O           0.00151186    -0.00011735     0.00071841
     89      3      O          -0.00025809    -0.00004117     0.00071606
     90      3      O           0.00047579    -0.00080525    -0.00054588
     91      3      O          -0.00045322     0.00289608     0.00077534
     92      3      O           0.00060022     0.00314236    -0.00286700
     93      3      O           0.00001995     0.00262876     0.00030072
     94      1      Ca          0.00011000    -0.00173409    -0.00041589
     95      4      H          -0.00095098     0.00130957     0.00076998
     96      4      H           0.00111383     0.00124552    -0.00049426
     97      4      H           0.00015280     0.00140101     0.00090639
     98      4      H          -0.00158636     0.00283309     0.00096017
     99      4      H           0.00262661     0.00463157    -0.00271737
    100      4      H           0.00038543    -0.00041923    -0.00015301
    101      4      H           0.00021808     0.00117673     0.00019995
    102      4      H           0.00010636     0.00060517     0.00004263
    103      4      H          -0.00009110     0.00089565    -0.00094963
    104      4      H           0.00038311     0.00041732     0.00024625
    105      4      H          -0.00068016     0.00033009     0.00022684
    106      4      H          -0.00101203     0.00052807    -0.00009868
    107      4      H          -0.00057905    -0.00003652    -0.00047307
    108      4      H          -0.00110823    -0.00112052     0.00035780
    109      4      H          -0.00012766     0.00073450     0.00095785
    110      4      H           0.00115019    -0.00045571    -0.00084379
    111      4      H          -0.00059349     0.00010006    -0.00008028
    112      4      H          -0.00082068    -0.00046235    -0.00000684
    113      4      H          -0.00013863     0.00030421    -0.00011107
    114      4      H          -0.00072800     0.00052700     0.00036743
    115      4      H           0.00026225     0.00058872    -0.00038302
    116      4      H          -0.00041939     0.00011837    -0.00003690
    117      4      H          -0.00065144     0.00034939     0.00068785
    118      4      H          -0.00032137    -0.00072564    -0.00065061
    119      4      H           0.00016143    -0.00049642    -0.00068934
    120      4      H           0.00037901    -0.00173464     0.00037953
    121      4      H           0.00028354    -0.00104942    -0.00082703
    122      4      H           0.00185338    -0.00271531     0.00031288
    123      4      H          -0.00092654    -0.00029445     0.00012479
    124      4      H          -0.00276170    -0.00713947     0.00283784
    125      4      H          -0.00037883    -0.00079930     0.00020990
    126      4      H           0.00072268    -0.00067999    -0.00016635
    127      4      H          -0.00015587    -0.00069437    -0.00015250
    128      4      H           0.00051944     0.00040849     0.00022751
    129      4      H          -0.00030824     0.00002378     0.00005034
    130      4      H          -0.00072935     0.00201331     0.00071514
    131      4      H          -0.00000482     0.00007683    -0.00019845
    132      4      H           0.00032092     0.00067435     0.00010916
    133      4      H           0.00041515    -0.00189441    -0.00191360
    134      4      H          -0.00017394    -0.00058435     0.00005788
    135      4      H          -0.00016370    -0.00122431    -0.00022983
    136      4      H          -0.00010668     0.00033317    -0.00032847
    137      4      H          -0.00076977    -0.00059523    -0.00032965
    138      4      H          -0.00003198    -0.00009052    -0.00000720
 SUM OF ATOMIC FORCES          -0.01775540    -0.00698056    -0.00238517     0.01922684

 STRESS| Analytical stress tensor [GPa]
 STRESS|                        x                   y                   z
 STRESS|      x        4.67874567481E-01  -1.96773983421E-01  -4.75259060207E-02
 STRESS|      y       -1.96773983421E-01   1.36995997909E+00   4.16642443532E-02
 STRESS|      z       -4.75259060207E-02   4.16642443532E-02   4.34024654212E-01
 STRESS| 1/3 Trace                                             7.57286400260E-01
 STRESS| Determinant                                           2.58263845558E-01

 STRESS| Eigenvectors and eigenvalues of the analytical stress tensor [GPa]
 STRESS|                        1                   2                   3
 STRESS| Eigenvalues   3.91085238126E-01   4.67153114204E-01   1.41362084845E+00
 STRESS|      x           0.719769204730     -0.662972689373     -0.205911401016
 STRESS|      y           0.115552549137     -0.178058426982      0.977211750323
 STRESS|      z           0.684528962361      0.727160511666      0.051552788119

 OPT| **************************************************************************
 OPT| Step number                                                              2
 OPT| Optimization method                                                   BFGS
 OPT| Total energy [hartree]                                    -1761.2481190148
 OPT| Effective energy change [hartree]                            -0.0061668040
 OPT| Predicted energy change [hartree]                            -0.0057080546
 OPT| Scaling factor                                                0.0000000000
 OPT| Step size                                                     0.0831722917
 OPT| Trust radius                                                  0.3779452266
 OPT| Decrease in energy                                                     YES
 OPT| Used time [s]                                                       40.713
 OPT|
 OPT| Maximum step size                                             0.0831722917
 OPT| Convergence limit for maximum step size                       0.0030000000
 OPT| Maximum step size is converged                                          NO
 OPT|
 OPT| RMS step size                                                 0.0154347080
 OPT| Convergence limit for RMS step size                           0.0015000000
 OPT| RMS step size is converged                                              NO
 OPT|
 OPT| Maximum gradient                                              0.0103664695
 OPT| Convergence limit for maximum gradient                        0.0004500000
 OPT| Maximum gradient is converged                                           NO
 OPT|
 OPT| RMS gradient                                                  0.0017119129
 OPT| Convergence limit for RMS gradient                            0.0003000000
 OPT| RMS gradient is converged                                               NO
 OPT| **************************************************************************
 OPT| Estimated peak process memory after this step [MiB]                    513

 --------------------------
 OPTIMIZATION STEP:      3
 --------------------------

 Number of electrons:                                                        656
 Number of occupied orbitals:                                                328
 Number of molecular orbitals:                                               328

 Number of orbital functions:                                               1460
 Number of independent orbital functions:                                   1460

 Extrapolation method: ASPC


 SCF WAVEFUNCTION OPTIMIZATION

  ----------------------------------- OT ---------------------------------------
  Minimizer      : DIIS                : direct inversion
                                         in the iterative subspace
                                         using   7 DIIS vectors
                                         safer DIIS on
  Preconditioner : FULL_KINETIC        : inversion of T + eS
  Precond_solver : DEFAULT
  stepsize       :    0.15000000                  energy_gap     :    0.20000000
  eps_taylor     :   0.10000E-15                  max_taylor     :             4
  ----------------------------------- OT ---------------------------------------

  Step     Update method      Time    Convergence         Total energy    Change
  ------------------------------------------------------------------------------
     1 OT DIIS     0.15E+00    1.0     0.00023443     -1761.2431554286 -1.76E+03
     2 OT DIIS     0.15E+00    1.7     0.00014903     -1761.2463029141 -3.15E-03
     3 OT DIIS     0.15E+00    1.9     0.00008653     -1761.2485567061 -2.25E-03
     4 OT DIIS     0.15E+00    1.7     0.00004597     -1761.2498006790 -1.24E-03
     5 OT DIIS     0.15E+00    1.7     0.00003031     -1761.2501698330 -3.69E-04
     6 OT DIIS     0.15E+00    1.7     0.00002089     -1761.2503361675 -1.66E-04
     7 OT DIIS     0.15E+00    1.8     0.00001338     -1761.2504244506 -8.83E-05
     8 OT DIIS     0.15E+00    1.7     0.00000849     -1761.2504597830 -3.53E-05
     9 OT DIIS     0.15E+00    1.7     0.00000581     -1761.2504721821 -1.24E-05
    10 OT DIIS     0.15E+00    1.7     0.00000379     -1761.2504784551 -6.27E-06
    11 OT DIIS     0.15E+00    1.7     0.00000253     -1761.2504811751 -2.72E-06
    12 OT DIIS     0.15E+00    1.8     0.00000171     -1761.2504823993 -1.22E-06
    13 OT DIIS     0.15E+00    1.7     0.00000117     -1761.2504829491 -5.50E-07
    14 OT DIIS     0.15E+00    1.7     0.00000076     -1761.2504832217 -2.73E-07
    15 OT DIIS     0.15E+00    1.7     0.00000053     -1761.2504833223 -1.01E-07
    16 OT DIIS     0.15E+00    1.9     0.00000037     -1761.2504833719 -4.96E-08
    17 OT DIIS     0.15E+00    1.7     0.00000026     -1761.2504833937 -2.17E-08
    18 OT DIIS     0.15E+00    1.7     0.00000019     -1761.2504834043 -1.06E-08
    19 OT DIIS     0.15E+00    1.8     0.00000013     -1761.2504834104 -6.15E-09
    20 OT DIIS     0.15E+00    1.8     0.00000010     -1761.2504834131 -2.72E-09
    21 OT DIIS     0.15E+00    2.0     0.00000008     -1761.2504834147 -1.53E-09

  *** SCF run converged in    21 steps ***


  Electronic density on regular grids:       -655.9999999993        0.0000000007
  Core density on regular grids:              655.9999999997       -0.0000000003
  Total charge density on r-space grids:        0.0000000003
  Total charge density g-space grids:           0.0000000003

  Overlap energy of the core charge distribution:               0.00000060682374
  Self energy of the core charge distribution:              -4144.80997841715816
  Core Hamiltonian energy:                                   1117.83145704693015
  Hartree energy:                                            1613.30411296298939
  Exchange-correlation energy:                               -347.07586620565212
  Dispersion energy:                                           -0.50020940859825

  Total energy:                                             -1761.25048341466504

  outer SCF iter =    1 RMS gradient =   0.78E-07 energy =      -1761.2504834147
  outer SCF loop converged in   1 iterations or   21 steps


 ENERGY| Total FORCE_EVAL ( QS ) energy [a.u.]:            -1761.250483415631379

 ATOMIC FORCES in [a.u.]

 # Atom   Kind   Element          X              Y              Z
      1      1      Ca         -0.00018133    -0.00034812     0.00008018
      2      1      Ca         -0.00023756    -0.00091308    -0.00090334
      3      1      Ca         -0.00013802    -0.00100087    -0.00016570
      4      1      Ca         -0.00052049    -0.00198945     0.00051021
      5      2      Si          0.00007715    -0.00070202    -0.00105279
      6      2      Si          0.00069541    -0.00193224    -0.00298320
      7      2      Si          0.00042983    -0.00138798    -0.00036621
      8      3      O          -0.00198794    -0.00177217    -0.00018934
      9      3      O           0.00004357     0.00172734     0.00028569
     10      3      O          -0.00132516    -0.00103840    -0.00077590
     11      3      O           0.00131061     0.00095565     0.00109581
     12      3      O          -0.00154941     0.00170020    -0.00011401
     13      3      O          -0.00045155    -0.00008037     0.00021407
     14      3      O          -0.00169242     0.00106143     0.00089201
     15      3      O          -0.00015759     0.00085821    -0.00033786
     16      3      O           0.00050217     0.00118259    -0.00053363
     17      3      O          -0.00172648     0.00049950     0.00007020
     18      3      O           0.00015459    -0.00065637     0.00020487
     19      3      O           0.00014149    -0.00007328     0.00050948
     20      3      O          -0.00089202     0.00228720    -0.00004528
     21      3      O           0.00013470    -0.00264270    -0.00039904
     22      3      O          -0.00200414    -0.00394468     0.00368136
     23      3      O           0.00029954     0.00006784    -0.00006400
     24      1      Ca         -0.00015076     0.00005542     0.00015460
     25      1      Ca         -0.00126249    -0.00183133    -0.00077100
     26      1      Ca          0.00026644    -0.00101895    -0.00051597
     27      1      Ca         -0.00003535    -0.00010747     0.00038614
     28      2      Si         -0.00301031     0.00128473     0.00087173
     29      2      Si         -0.00071629     0.00075372    -0.00004507
     30      2      Si         -0.00054507    -0.00097817    -0.00234039
     31      3      O           0.00037261    -0.00069100    -0.00035395
     32      3      O          -0.00030191    -0.00226422     0.00026572
     33      3      O           0.00026423    -0.00008091     0.00009276
     34      3      O           0.00040845     0.00065192    -0.00018821
     35      3      O          -0.00014269    -0.00057102     0.00015442
     36      3      O          -0.00054235    -0.00298574     0.00155372
     37      3      O          -0.00004419    -0.00100254    -0.00026960
     38      3      O          -0.00139807     0.00115600    -0.00151828
     39      3      O          -0.00032124     0.00050871    -0.00049457
     40      3      O          -0.00034832     0.00047582    -0.00046627
     41      3      O          -0.00015238     0.00185481    -0.00023978
     42      3      O          -0.00026604     0.00047677    -0.00052039
     43      3      O           0.00046359     0.00003980     0.00055841
     44      3      O           0.00013689    -0.00032703     0.00038258
     45      3      O           0.00059801     0.00091910    -0.00020524
     46      3      O          -0.00078995     0.00132295     0.00010473
     47      1      Ca         -0.00057145     0.00094612     0.00006972
     48      1      Ca          0.00013586     0.00053945     0.00019881
     49      1      Ca          0.00059670     0.00082571     0.00088235
     50      1      Ca         -0.00070769     0.00027857     0.00072912
     51      1      Ca         -0.00064070    -0.00053782    -0.00033203
     52      2      Si          0.00361906    -0.00155054    -0.00071063
     53      2      Si         -0.00077770     0.00041933     0.00039610
     54      2      Si         -0.00001782    -0.00003430     0.00281360
     55      3      O          -0.00007155     0.00117033     0.00049291
     56      3      O          -0.00127088    -0.00015032     0.00040991
     57      3      O           0.00011650    -0.00080247    -0.00006415
     58      3      O          -0.00029943     0.00021763    -0.00087476
     59      3      O           0.00119601    -0.00008812    -0.00136032
     60      3      O           0.00047148     0.00233006    -0.00260022
     61      3      O          -0.00088447     0.00231143     0.00022831
     62      3      O           0.00097889    -0.00062646     0.00187882
     63      3      O           0.00046525    -0.00008884    -0.00033614
     64      3      O          -0.00181937    -0.00261032    -0.00005692
     65      3      O           0.00019910    -0.00106483    -0.00004437
     66      3      O           0.00026419    -0.00064215    -0.00006663
     67      3      O           0.00062683     0.00012719     0.00015006
     68      3      O          -0.00032981    -0.00053011    -0.00020224
     69      3      O           0.00031880    -0.00071566     0.00012067
     70      3      O           0.00096962    -0.00277292    -0.00082617
     71      1      Ca         -0.00072528    -0.00029501    -0.00024085
     72      1      Ca         -0.00020250    -0.00022540     0.00069845
     73      1      Ca         -0.00021205    -0.00005708     0.00002696
     74      1      Ca          0.00001700     0.00154498    -0.00093322
     75      2      Si          0.00029712     0.00097417    -0.00005975
     76      2      Si         -0.00027532     0.00185735     0.00200283
     77      2      Si         -0.00105506     0.00037108     0.00095302
     78      3      O           0.00164737     0.00221663     0.00164708
     79      3      O          -0.00000899    -0.00026436     0.00025323
     80      3      O           0.00108473     0.00089914     0.00072237
     81      3      O          -0.00097960    -0.00030543    -0.00001472
     82      3      O           0.00153150     0.00082614    -0.00059375
     83      3      O           0.00035265    -0.00062179    -0.00022281
     84      3      O           0.00202263    -0.00180281    -0.00031508
     85      3      O           0.00073289    -0.00079822     0.00033087
     86      3      O           0.00020907    -0.00045312    -0.00003647
     87      3      O           0.00067866    -0.00007448    -0.00012122
     88      3      O           0.00001285     0.00122758     0.00004799
     89      3      O          -0.00013150     0.00065665    -0.00060865
     90      3      O           0.00117325    -0.00115558    -0.00023179
     91      3      O          -0.00033187     0.00331462     0.00033363
     92      3      O           0.00290829     0.00826757    -0.00254864
     93      3      O          -0.00022514     0.00066554    -0.00031896
     94      1      Ca          0.00015563    -0.00107739     0.00001618
     95      4      H          -0.00043785     0.00120568     0.00054324
     96      4      H          -0.00043182     0.00026383     0.00010271
     97      4      H           0.00007343     0.00073537    -0.00015381
     98      4      H          -0.00151795     0.00303590     0.00074908
     99      4      H           0.00188327     0.00550407    -0.00305332
    100      4      H           0.00010299     0.00032498    -0.00070130
    101      4      H           0.00022948     0.00070580     0.00036404
    102      4      H          -0.00012438    -0.00004031    -0.00012226
    103      4      H          -0.00027919     0.00064470    -0.00101905
    104      4      H           0.00018351     0.00055204     0.00029298
    105      4      H          -0.00064224     0.00008514     0.00018936
    106      4      H          -0.00072093     0.00077722     0.00002596
    107      4      H          -0.00099812    -0.00009291     0.00008998
    108      4      H          -0.00061307    -0.00039779     0.00007534
    109      4      H          -0.00037484     0.00064315     0.00048996
    110      4      H           0.00049471    -0.00029704    -0.00057441
    111      4      H          -0.00066173     0.00015956     0.00011230
[...]
 flops   421 x    32 x    62          72968663040       0.0%    100.0%      0.0%     
 flops    96 x    32 x    50          74981376000       0.0%    100.0%      0.0%     
 flops     5 x    32 x     5          75922176000       0.0%    100.0%      0.0%     
 flops     5 x    13 x    32          79501593600       0.0%    100.0%      0.0%     
 flops    13 x     5 x    32          79501593600       0.0%    100.0%      0.0%     
 flops   104 x    32 x    50          81229824000       0.0%    100.0%      0.0%     
 flops   390 x    32 x    50          81768960000       0.0%    100.0%      0.0%     
 flops    64 x    32 x    62          82646138880       0.0%    100.0%      0.0%     
 flops    14 x    32 x     5          86965401600       0.0%    100.0%      0.0%     
 flops     5 x    32 x    14          86965401600       0.0%    100.0%      0.0%     
 flops   313 x    32 x    57          87281026560       0.0%    100.0%      0.0%     
 flops   421 x    32 x    50          88268544000       0.0%    100.0%      0.0%     
 flops    14 x    13 x    32          91065461760       0.0%    100.0%      0.0%     
 flops    13 x    14 x    32          91065461760       0.0%    100.0%      0.0%     
 flops   336 x    32 x    57          93694648320       0.0%    100.0%      0.0%     
 flops    14 x    32 x    14          99614914560       0.0%    100.0%      0.0%     
 flops    96 x    32 x    57          99725230080       0.0%    100.0%      0.0%     
 flops    64 x    32 x    50          99975168000       0.0%    100.0%      0.0%     
 flops   104 x    32 x    57         108035665920       0.0%    100.0%      0.0%     
 flops   390 x    32 x    57         108752716800       0.0%    100.0%      0.0%     
 flops   421 x    32 x    57         117397163520       0.0%    100.0%      0.0%     
 flops    96 x    32 x    32         132218880000       0.0%    100.0%      0.0%     
 flops    64 x    32 x    57         132966973440       0.0%    100.0%      0.0%     
 flops   104 x    32 x    32         143237120000       0.0%    100.0%      0.0%     
 flops    64 x    32 x    32         176291840000       0.0%    100.0%      0.0%     
 flops   313 x    32 x    32         323076096000       0.0%    100.0%      0.0%     
 flops     5 x    32 x    13         340959590400       0.0%    100.0%      0.0%     
 flops    13 x    32 x     5         340959590400       0.0%    100.0%      0.0%     
 flops   336 x    32 x    32         346816512000       0.0%    100.0%      0.0%     
 flops    13 x    13 x    32         361732250880       0.0%    100.0%      0.0%     
 flops    14 x    32 x    13         390553712640       0.0%    100.0%      0.0%     
 flops    13 x    32 x    14         390553712640       0.0%    100.0%      0.0%     
 flops   390 x    32 x    32         402554880000       0.0%    100.0%      0.0%     
 flops   421 x    32 x    32         434552832000       0.0%    100.0%      0.0%     
 flops    13 x    32 x    13        1531218524160       0.0%    100.0%      0.0%     
 flops inhomo. stacks               1304179194240     100.0%      0.0%      0.0%
 flops total                         9.416251E+12      13.9%     86.1%      0.0%
 flops max/rank                    442.299984E+09      14.9%     85.1%      0.0%
 matmuls inhomo. stacks                   2043360     100.0%      0.0%      0.0%
 matmuls total                          645721307       0.3%     99.7%      0.0%
 number of processed stacks              42344522       4.8%     95.2%      0.0%
 average stack size                                     1.0      16.0       0.0
 marketing flops                     9.926596E+12
 -------------------------------------------------------------------------------
 # multiplications                          20639
 max memory usage/rank             538.292224E+06
 # max total images/rank                       13
 # max 3D layers                                1
 # MPI messages exchanged                40782664
 MPI messages size (bytes):
  total size                         2.686062E+12
  min size                           0.000000E+00
  max size                         381.680000E+03
  average size                      65.862828E+03
 MPI breakdown and total messages size (bytes):
             size <=      128            19828095                        0
       128 < size <=     8192             1651829              10948725760
      8192 < size <=    32768             2612290              36248230400
     32768 < size <=   131072             8963050             545371616000
    131072 < size <=  4194304             7727400            2093797680000
   4194304 < size <= 16777216                   0                        0
  16777216 < size                               0                        0
 -------------------------------------------------------------------------------

 *** WARNING in dbcsr_mm.F:301 :: Using a non-square number of MPI ranks ***
 *** might lead to poor performance. Used ranks: 52 Suggested: 49 100    ***

 -------------------------------------------------------------------------------
 -                                                                             -
 -                      DBCSR MESSAGE PASSING PERFORMANCE                      -
 -                                                                             -
 -------------------------------------------------------------------------------
 ROUTINE             CALLS      AVE VOLUME [Bytes]
 MP_Bcast              113                     12.
 MP_Allreduce       110799                      9.
 MP_Alltoall         68618                  22843.
 MP_ISend          1846908                  30630.
 MP_IRecv          1786124                  30396.
 -------------------------------------------------------------------------------

 -------------------------------------------------------------------------------
 -                                                                             -
 -                                DBM STATISTICS                               -
 -                                                                             -
 -------------------------------------------------------------------------------
    M  x    N  x    K                                          COUNT     PERCENT
 -------------------------------------------------------------------------------

 -------------------------------------------------------------------------------
 -                                                                             -
 -                                GRID STATISTICS                              -
 -                                                                             -
 -------------------------------------------------------------------------------
 LP    KERNEL             BACKEND                              COUNT     PERCENT
 3     collocate general  CPU                              115549272      22.37%
 4     collocate general  CPU                              110881323      21.47%
 3     integrate general  CPU                              109996777      21.30%
 4     integrate general  CPU                              105174442      20.37%
 2     collocate general  CPU                               31512980       6.10%
 2     integrate general  CPU                               29890921       5.79%
 6     integrate general  CPU                                5840998       1.13%
 7     integrate general  CPU                                5604973       1.09%
 5     integrate general  CPU                                1593090       0.31%
 0     collocate general  CPU                                 401856       0.08%
 -------------------------------------------------------------------------------

 MEMORY| Estimated peak process memory [MiB]                                 514

 -------------------------------------------------------------------------------
 -                                                                             -
 -                         MESSAGE PASSING PERFORMANCE                         -
 -                                                                             -
 -------------------------------------------------------------------------------

 ROUTINE             CALLS      AVE VOLUME [Bytes]
 MP_Group                4
 MP_Bcast             6571                 116972.
 MP_Allreduce        23212                    364.
 MP_Sync                84
 MP_Alltoall         25794                2706461.
 MP_SendRecv        177684                  64997.
 MP_ISendRecv       166311                  68832.
 MP_Wait            321759
 MP_comm_split          25
 MP_ISend           141732                 237201.
 MP_IRecv           141732                 237200.
 -------------------------------------------------------------------------------


 -------------------------------------------------------------------------------
 -                                                                             -
 -                           R E F E R E N C E S                               -
 -                                                                             -
 -------------------------------------------------------------------------------
 
 CP2K version 2024.3, the CP2K developers group (2024).
 CP2K is freely available from https://www.cp2k.org/ .
 
 T. D. Kuehne, M. Iannuzzi, M. Del Ben, V. V. Rybkin, P. Seewald, F. Stein, T. 
 Laino, R. Z. Khaliullin, O. Schuett, F. Schiffmann, D. Golze, J. Wilhelm, S. 
 Chulkov, M. H. Bani-Hashemian, V. Weber, U. Borstnik, M. Taillefumier, A. S. 
 Jakobovits, A. Lazzaro, H. Pabst, T. Mueller, R. Schade, M. Guidon, S. 
 Andermatt, N. Holmberg, G. K. Schenter, A. Hehn, A. Bussy, F. Belleflamme, G. 
 Tabacchi, A. Gloess, M. Lass, I. Bethune, C. J. Mundy, C. Plessl, M. Watkins, 
 J. VandeVondele, M. Krack, J. Hutter.
 J. Chem. Phys. 152, 194103 (2020).
 CP2K: An electronic structure and molecular dynamics software package - 
 Quickstep: Efficient and accurate electronic structure calculations.
 https://doi.org/10.1063/5.0007045

 L. Goerigk, A. Hansen, C. Bauer, S. Ehrlich, A. Najibi, S. Grimme.
 Phys. Chem. Chem. Phys. 19, 32184-32215 (2017).
 A look at the density functional theory zoo with the advanced GMTKN55 database 
 for general main group thermochemistry, kinetics and noncovalent interactions.
 https://doi.org/10.1039/C7CP04913G

 O. Schuett, P. Messmer, J. Hutter, J. VandeVondele.
 Electronic Structure Calculations on Graphics Processing Units, 173-190 (2016).
 GPU-Accelerated Sparse Matrix-Matrix Multiplication for Linear Scaling Density 
 Functional Theory.
 https://doi.org/10.1002/9781118670712.ch8

 A. Heinecke, G. Henry, M. Hutchinson, H. Pabst.
 Proceedings of Intl. Supercomputing Conference, 981-991 (2016).
 LIBXSMM: Accelerating Small Matrix Multiplications by Runtime Code Generation.
 https://doi.org/10.1109/SC.2016.83

 J. Hutter, M. Iannuzzi, F. Schiffmann, J. VandeVondele.
 WIREs Comput Mol Sci. 4, 15-25 (2014).
 CP2K: atomistic simulations of condensed matter systems.
 https://doi.org/10.1002/wcms.1159

 U. Borstnik, J. VandeVondele, V. Weber, J. Hutter.
 Parallel Comput. 40, 47-58 (2014).
 Sparse matrix multiplication: The distributed block-compressed sparse row 
 library.
 https://doi.org/10.1016/j.parco.2014.03.012

 A. Marek, V. Blum, R. Johanni, V. Havu, B. Lang, T. Auckenthaler, A. Heinecke, 
 H. Bungartz, H. Lederer.
 J. Phys. Condens. Matter 26, 213201 (2014).
 The ELPA library: scalable parallel eigenvalue solutions for electronic 
 structure theory and computational science.
 https://doi.org/10.1088/0953-8984/26/21/213201

 S. Grimme, S. Ehrlich, L. Goerigk.
 J. Comput. Chem. 32, 1456 (2011).
 Effect of the damping function in dispersion corrected density functional 
 theory.
 https://doi.org/10.1002/jcc.21759

 S. Grimme, J. Antony, S. Ehrlich, H. Krieg.
 J. Chem. Phys. 132, 154104 (2010).
 A consistent and accurate ab initio parametrization of density functional 
 dispersion correction (DFT-D) for the 94 elements H-Pu.
 https://doi.org/10.1063/1.3382344

 J. P. Perdew, A. Ruzsinszky, G. I. Csonka, O. A. Vydrov, G. E. Scuseria, L. A. 
 Constantin, X. Zhou, K. Burke.
 Phys. Rev. Lett. 100, 136406-136409 (2008).
 Restoring the Density-Gradient Expansion for Exchange in Solids and Surfaces.
 https://doi.org/10.1103/PhysRevLett.100.136406

 J. VandeVondele, J. Hutter.
 J. Chem. Phys. 127, 114105 (2007).
 Gaussian basis sets for accurate calculations on molecular systems in gas and 
 condensed phases.
 https://doi.org/10.1063/1.2770708

 T. D. Kühne, M. Krack, F. R. Mohamed, M. Parrinello.
 Phys. Rev. Lett. 98, 066401 (2007).
 Efficient and accurate Car-Parrinello-like approach to Born-Oppenheimer 
 molecular dynamics.
 https://doi.org/10.1103/PhysRevLett.98.066401

 J. VandeVondele, M. Krack, F. Mohamed, M. Parrinello, T. Chassaing, J. Hutter.
 Comput. Phys. Commun. 167, 103-128 (2005).
 QUICKSTEP: Fast and accurate density functional calculations using a mixed 
 Gaussian and plane waves approach.
 https://doi.org/10.1016/j.cpc.2004.12.014

 M. Krack.
 Theor. Chem. Acc. 114, 145-152 (2005).
 Pseudopotentials for H to Kr optimized for gradient-corrected 
 exchange-correlation functionals.
 https://doi.org/10.1007/s00214-005-0655-y

 M. Frigo, S. G. Johnson.
 Proc. IEEE 93, 216-231 (2005).
 The design and implementation of FFTW3.
 https://doi.org/10.1109/JPROC.2004.840301

 J. Kolafa.
 J. Comput. Chem. 25, 335-342 (2004).
 Time-reversible always stable predictor-corrector method for molecular dynamics 
 of polarizable molecules.
 https://doi.org/10.1002/jcc.10385

 J. VandeVondele, J. Hutter.
 J. Chem. Phys. 118, 4365-4369 (2003).
 An efficient orbital transformation method for electronic structure 
 calculations.
 https://doi.org/10.1063/1.1543154

 C. Hartwigsen, S. Goedecker, J. Hutter.
 Phys. Rev. B 58, 3641-3662 (1998).
 Relativistic separable dual-space Gaussian pseudopotentials from H to Rn.
 https://doi.org/10.1103/PhysRevB.58.3641

 G. Lippert, J. Hutter, M. Parrinello.
 Mol. Phys. 92, 477-487 (1997).
 A hybrid Gaussian and plane wave density functional scheme.
 https://doi.org/10.1080/002689797170220

 S. Goedecker, M. Teter, J. Hutter.
 Phys. Rev. B 54, 1703-1710 (1996).
 Separable dual-space Gaussian pseudopotentials.
 https://doi.org/10.1103/PhysRevB.54.1703

 J. P. Perdew, K. Burke, M. Ernzerhof.
 Phys. Rev. Lett. 77, 3865-3868 (1996).
 Generalized gradient approximation made simple.
 https://doi.org/10.1103/PhysRevLett.77.3865


 -------------------------------------------------------------------------------
 -                                                                             -
 -                                T I M I N G                                  -
 -                                                                             -
 -------------------------------------------------------------------------------
 SUBROUTINE                       CALLS  ASD         SELF TIME        TOTAL TIME
                                MAXIMUM       AVERAGE  MAXIMUM  AVERAGE  MAXIMUM
 CP2K                                 1  1.0    0.013    0.016 2041.253 2041.255
 cp_geo_opt                           1  2.0    0.000    0.000 2040.912 2040.914
 geoopt_bfgs                          1  3.0    0.018    0.023 2040.912 2040.914
 cp_eval_at                          56  4.0    0.010    0.035 2038.707 2038.730
 qs_forces                           55  5.0    0.013    0.014 2014.511 2014.513
 qs_energies                         56  6.0    0.005    0.006 1891.047 1891.072
 scf_env_do_scf                      56  7.0    0.003    0.007 1818.195 1818.200
 scf_env_do_scf_inner_loop         1032  8.0    0.026    0.125 1758.076 1758.335
 rebuild_ks_matrix                 1087  9.8    0.005    0.006 1080.122 1080.803
 qs_ks_build_kohn_sham_matrix      1087 10.8    0.203    0.224 1080.117 1080.799
 qs_ks_update_qs_env               1092  9.0    0.009    0.012  972.437  972.938
 sum_up_and_integrate              1087 11.8    0.028    0.050  825.028  825.428
 integrate_v_rspace                1087 12.8    0.051    0.082  824.207  824.832
 qs_rho_update_rho_low             1088  9.0    0.006    0.008  798.061  798.640
 calculate_rho_elec                1088 10.0    0.561    0.654  798.055  798.635
 grid_collocate_task_list          1088 11.0  663.710  686.098  663.710  686.098
 grid_integrate_task_list          1087 13.8  657.291  679.912  657.291  679.912
 fft_wrap_pw1pw2                  18540 14.2    0.785    0.916  227.438  239.571
 fft_wrap_pw1pw2_250              12015 15.6   11.588   12.151  212.432  223.063
 qs_vxc_create                     1087 11.8    0.057    0.069  191.352  195.258
 xc_vxc_pw_create                  1087 12.8    4.966    5.958  191.295  195.210
 fft3d_ps                         18540 16.2   89.466  100.445  174.678  189.139
 density_rs2pw                     1088 11.0    0.110    0.139  130.950  162.702
 xc_pw_derive                      6522 14.8    0.176    0.221  137.993  152.019
 potential_pw2rs                   1087 13.8    0.138    0.183  126.772  127.196
 transfer_rs2pw                    4408 12.0    0.084    0.128   87.496  118.052
 qs_ks_update_qs_env_forces          55  6.0    0.000    0.001  108.201  108.717
 mp_waitany                      141732 15.3   75.061  106.828   75.061  106.828
 transfer_rs2pw_250                1144 12.9   17.893   21.050   73.003  103.496
 transfer_pw2rs                    4403 14.8    0.079    0.105  103.320  103.457
 xc_pw_divergence                  1087 13.8    0.090    0.108   93.857  102.767
 mp_alltoall_z22v                 18540 18.2   58.069  100.392   58.069  100.392
 dbcsr_multiply_generic           20639 14.0    1.114    1.264   96.042   97.603
 xc_rho_set_and_dset_create        1087 13.8    2.427    3.027   88.871   90.986
 qs_scf_new_mos                    1032  9.0    0.006    0.009   84.873   85.530
 qs_scf_loop_do_ot                 1032 10.0    0.007    0.009   84.868   85.525
 transfer_pw2rs_250                1142 15.6   41.483   42.577   82.822   84.397
 ot_scf_mini                       1032 11.0    0.031    0.034   79.379   80.036
 mp_alltoall_d11v                 14560 15.0   41.042   71.880   41.042   71.880
 rs_gather_matrices                1087 13.8    0.221    0.346   40.003   70.901
 yz_to_x                           6580 17.4    9.355   11.733   40.592   64.969
 init_scf_loop                       60  8.0    0.002    0.002   59.802   59.806
 multiply_cannon                  20639 15.0    2.358    2.550   51.044   54.309
 ot_mini                           1032 12.0    0.007    0.008   53.433   54.077
 x_to_yz                           7610 17.4   13.500   15.860   39.529   47.786
 init_scf_run                        56  7.0    0.001    0.003   47.541   47.547
 scf_env_initial_rho_setup           56  8.0    0.001    0.001   47.540   47.545
 wfi_extrapolate                     56  9.0    0.006    0.007   46.715   46.715
 mp_waitall_1                   2821819 18.0   31.095   45.603   31.095   45.603
 multiply_cannon_loop             20639 16.0    2.950    3.777   41.564   44.527
 qs_ot_get_derivative              1032 13.0    0.009    0.011   41.919   42.636
 -------------------------------------------------------------------------------

 The number of warnings for this run is : 1
 
 -------------------------------------------------------------------------------
  **** **** ******  **  PROGRAM ENDED AT                 2025-01-16 06:13:03.630
 ***** ** ***  *** **   PROGRAM RAN ON                               ubuntu-GPU2
 **    ****   ******    PROGRAM RAN BY                                       zkm
 ***** **    ** ** **   PROGRAM PROCESS ID                               3479912
  **** **  *******  **  PROGRAM STOPPED IN /home/zkm/CP2K/Generate_dataset/Jenni
                                           te/Elastic/elastic_cp2k/example/epsil
                                           onyy/neg
