     138
 i =        1, E =     -1761.2419522108
 Ca        -0.7327213623        1.4133969493        3.7009730199
 Ca         2.5241741453        4.5790315204        3.2904393409
 Ca        -1.8750935569        4.8575162444        3.9495856710
 Ca         3.4514061669        0.9886564609        3.5242764732
 Si         5.9530851951        5.8098899088        1.9725766236
 Si         6.7233976839        0.6759477642        3.8036303705
 Si         5.5281439913        3.5023732485        3.9343794854
  O         4.9303422118       12.9576553775        2.5914330559
  O         0.3405251612        5.5455464880        3.5374965357
  O         5.5064124184       -0.2676984580        4.3233246968
  O         7.8736848150        0.8567792722        4.9337955179
  O         7.4367042784        0.2179925822        2.3931240389
  O         5.2449587812        4.4647838462        2.6220343174
  O         6.0339924899        2.0747007942        3.2974268583
  O         5.9959920773        5.6747507737        0.3667565890
  O         4.0217540528        3.1814133525        4.4517053951
  O         6.6291501234        4.1030715854        4.9589263778
  O         1.4603248629        2.3044716689        3.3122034067
  O        -1.3854034582        3.1758560051        2.3899802376
  O         4.0135043225        0.8577991313        1.2177898108
  O         4.4726535317       -0.9578608252        9.3301769924
  O         8.3046064726       -1.6932405705        9.4488184181
  O         6.1343756629        1.0133109823        9.3975110036
 Ca         7.6963026404        2.5997760052        6.5903701501
 Ca         4.4412647337       -0.5612834228        6.9723840557
 Ca         8.7754646293       -0.7920175909        6.4398560825
 Ca         3.4811386100        2.9784638496        6.6159234579
 Si         1.0599704036       -1.7549507433        8.3169294873
 Si         0.2838876482        3.4181951836        6.3990590727
 Si         1.4065758671        0.5243661432        6.3517559045
  O        -2.8717572073        4.6613074314        7.6867912436
  O         6.5733310919       -1.5365060258        6.6305212237
  O         1.4961249316        4.3124786756        5.7867347375
  O        -0.9269868927        3.1474969445        5.3671092164
  O        -0.2645936477        3.9978428983        7.8332957782
  O         1.5835750484       -0.2779921975        7.7786969995
  O         1.0223101439        2.0333399289        6.9217752123
  O         1.0237684066       -1.7606113989        9.9291408205
  O         2.9139203700        0.6988482198        5.7756804764
  O         0.2583738122       -0.0537882904        5.3688610279
  O         5.5019353969        1.6352488023        6.9096304914
  O        -1.7337423700        1.0203318263        7.9077100173
  O         3.4893585580        3.7951285460        8.8182079261
  O         2.5428759565        5.2116775905        1.0595842929
  O        -1.3465558683        5.5719827572        0.7016004845
  O         0.9722718026        3.0504626656        0.7183152717
 Ca         9.2774259211        3.3377494906        0.0154990225
 Ca        -3.2156944767        8.2520012865        3.6785453888
 Ca         0.0556812561       11.4023013681        3.2640097111
 Ca        -4.3522170389       11.6919930159        3.9376978531
 Ca         0.9813743278        7.8166469553        3.5156065711
 Si         3.4724420237       12.6388044901        1.9759886011
 Si         4.2499349739        7.5180530179        3.8005610384
 Si         3.0593326044       10.3490214560        3.9372218255
  O         7.4063968670        6.1638034030        2.6055716755
  O        -2.1201870344       12.3927172694        3.5348105771
  O         3.0213076100        6.5867142382        4.3195379938
  O         5.3900554783        7.7239453701        4.9406684566
  O         4.9412876186        7.0481344281        2.3862662778
  O         2.7668082974       11.2881170764        2.6164554824
  O         3.5648529055        8.9227195702        3.3009329488
  O         3.5287618453       12.5259825777        0.3661463145
  O         1.5500471182       10.0415697172        4.4555595216
  O         4.1603652703       10.9571605899        4.9603662338
  O        -1.0103209148        9.1707410383        3.3128131013
  O        -3.8514518125       10.0410460769        2.3859672183
  O         1.5368740942        7.7082779255        1.2120179249
  O         1.9881626432        5.8822045447        9.2607957621
  O         5.8183410934        5.1524441767        9.4502443696
  O         3.6497944771        7.8499199866        9.4060203374
 Ca         5.2141904701        9.4360777301        6.5670719732
 Ca         1.9872435498        6.2701346111        6.9065464108
 Ca         6.3021456116        6.0447691893        6.4311942476
 Ca         1.0152294943        9.8108934338        6.6154616473
 Si        -1.4294731261        5.0611926717        8.3226910097
 Si        -2.1875019714       10.2604958906        6.3927257204
 Si        -1.0637279307        7.3722775718        6.3527557548
  O        -5.3213991473       11.4617288129        7.6992753242
  O         4.1088000842        5.3020274751        6.6258140991
  O        -0.9831764817       11.1691171599        5.7872546205
  O        -3.4094065724       10.0098447750        5.3732270084
  O        -2.7469903467       10.8321611587        7.8289281175
  O        -0.9119442958        6.5312453044        7.7643424328
  O        -1.4499508771        8.8819532844        6.9277751278
  O        -1.4592642630        5.0894108009        9.9334529962
  O         0.4411431555        7.5628610360        5.7760293156
  O        -2.2075230959        6.7951374792        5.3672596738
  O         3.0268723316        8.5019843679        6.9138310009
  O        -4.2053424787        7.8894009334        7.9068394909
  O         1.0262459689       10.6514011610        8.8167671586
  O         0.0910021406       12.0681960800        1.0487065981
  O        -3.8135257036       12.4247430685        0.7079508635
  O        -1.4921939584        9.9161079757        0.7132596722
 Ca         6.7991626454       10.1969104378        0.0319465457
  H         3.1723075612        0.8648957492        0.5907049990
  H         4.6641573875        1.3677329239        0.6526663169
  H         5.1628528276       -0.2312370573        9.5255711896
  H         5.0039442195       -1.8302266926        9.2807915471
  H         8.1002752724       -2.5661157561        9.9764357702
  H         9.0977696495       -1.9495338717        8.8707278238
  H         5.6697920250        1.8249402917        9.9090668973
  H         6.0062239366        1.2236880474        8.4179113315
  H         3.8917334210        3.2867791674        9.6406941933
  H         4.2377373199        4.4455262566        8.6864980718
  H         1.9456972792        4.5288324543        0.6435576963
  H         2.1142644397        6.1166598959        0.9696365021
  H        -2.0565128367        5.8412085307        1.3566566684
  H        -1.0190884087        6.4505742107        0.3052913689
  H         1.0559152856        2.8046494850        1.6858843729
  H         1.4080464998        2.2087120792        0.2664957932
  H         0.6966298873        7.7325629447        0.5827728049
  H         2.1868475647        8.2192361327        0.6482556193
  H         2.6654876610        6.6120145629        9.4940104456
  H         2.5093354635        5.0098885529        9.2455764547
  H         5.6371073705        4.2914894847        9.9832863896
  H         6.6189129592        4.8958691412        8.8785545531
  H         3.1940286739        8.6645860908        9.9185122401
  H         3.5349980855        8.0763322008        8.4297302227
  H         1.4296227866       10.1491091729        9.6431219205
  H         6.7139260240       -2.2924829345        8.6873934353
  H        -0.5221284957       11.3926425101        0.6460655077
  H        -0.3581140441       12.9733554881        0.9822038473
  H        -4.5308800793       12.6870204925        1.3549554833
  H        -3.4855059821       13.3092011564        0.2975215420
  H        -1.4153099993        9.6746121338        1.6826458389
  H        -1.0601119229        9.0689269358        0.2659433686
  H         0.5619520315        5.3507657666        4.4821746245
  H         1.3456417534        2.7052286570        4.2038766706
  H        -0.5384163502        3.6798611566        2.3947478648
  H         6.4010170454       -1.3289733499        5.6774436125
  H         5.6955398578        1.2401256820        6.0286905352
  H        -0.8095205188        1.3506930228        7.9369480991
  H        -1.9125241037       12.2192247396        4.4869962201
  H        -1.1249061163        9.5709215995        4.2041576226
  H        -3.0084846385       10.5510808358        2.3909476114
  H         3.9408744101        5.5196457237        5.6749148903
  H         3.2296808167        8.1257678012        6.0263311560
  H        -3.2808041869        8.2191990816        7.9413931838
     138
 i =        2, E =     -1761.2481190148
 Ca        -0.7416080508        1.4113838554        3.6993610592
 Ca         2.5194049578        4.5837787946        3.2878383810
 Ca        -1.8782145603        4.8585550514        3.9429795792
 Ca         3.4603616244        0.9907784721        3.5143102109
 Si         5.9513688714        5.8100902709        1.9721382599
 Si         6.7281222672        0.6899524033        3.8039056652
 Si         5.5280859265        3.5111119092        3.9346304043
  O         4.9279157521       12.9833112897        2.5960867508
  O         0.3420431846        5.5284307517        3.5364722721
  O         5.5124686302       -0.2542666181        4.3191553167
  O         7.8628580407        0.8730191933        4.9477206792
  O         7.4385799071        0.2620054633        2.3816326560
  O         5.2275278997        4.4768387725        2.6285234123
  O         6.0333234368        2.0852747547        3.2976015785
  O         6.0061120605        5.6725396378        0.3674458274
  O         4.0230169553        3.1834061370        4.4534734335
  O         6.6239169038        4.1130172908        4.9637081806
  O         1.4766600628        2.3133223768        3.3135165482
  O        -1.3892756975        3.1765988536        2.3940221636
  O         4.0115395719        0.8678020290        1.2224569874
  O         4.4676691935       -0.9483012036        9.3361328682
  O         8.3011630662       -1.6803051337        9.4375901356
  O         6.1336667335        1.0159758300        9.3949174207
 Ca         7.6907634744        2.6022804507        6.5912727664
 Ca         4.4439083577       -0.5543865118        6.9777984909
 Ca         8.7665098279       -0.7784061202        6.4423491491
 Ca         3.4780253055        2.9845661254        6.6204032052
 Si         1.0580490816       -1.7484713583        8.3205616855
 Si         0.2849501399        3.4257170123        6.4028776867
 Si         1.4109655826        0.5328498713        6.3578505402
  O        -2.8744669822        4.6570989723        7.6891803067
  O         6.5722305361       -1.5011721604        6.6335729811
  O         1.5021300996        4.3058675817        5.7807152606
  O        -0.9314878007        3.1586465754        5.3759489475
  O        -0.2593098408        4.0112953422        7.8369212112
  O         1.5853352353       -0.2751430863        7.7797750452
  O         1.0246032548        2.0416829569        6.9209743520
  O         1.0263414486       -1.7388652736        9.9335535396
  O         2.9157265495        0.7117479815        5.7784536358
  O         0.2669929025       -0.0550273920        5.3792603459
  O         5.4977526917        1.6414895295        6.9066242931
  O        -1.7309573228        1.0267342892        7.9098711909
  O         3.4927036857        3.7978976512        8.8213299482
  O         2.5368953573        5.2157894378        1.0609753511
  O        -1.3542267817        5.5704208146        0.7004480541
  O         0.9720238722        3.0611087178        0.7217005211
 Ca         9.2776727707        3.3299465356        0.0222893264
 Ca        -3.2124232981        8.2409267261        3.6809098810
 Ca         0.0504781133       11.3865591725        3.2541411622
 Ca        -4.3466150386       11.6765417326        3.9320471259
 Ca         0.9811819542        7.8059591625        3.5128510165
 Si         3.4692988452       12.6282295787        1.9756617267
 Si         4.2437431147        7.5095253562        3.7932617774
 Si         3.0480482980       10.3419027350        3.9334626644
  O         7.4017403558        6.1645306495        2.6081539882
  O        -2.1203375953       12.3487550908        3.5277928668
  O         3.0166706715        6.5808623840        4.3204930241
  O         5.3838812202        7.7112203498        4.9336224908
  O         4.9345435616        7.0466365812        2.3766248815
  O         2.7604944507       11.2730090604        2.6063175470
  O         3.5578850039        8.9156191890        3.3016828765
  O         3.5298397367       12.5042327391        0.3662067771
  O         1.5438060060       10.0129855331        4.4575292638
  O         4.1559807056       10.9439529655        4.9538591060
  O        -1.0186462412        9.1586182179        3.3135254544
  O        -3.8468573471       10.0234168722        2.3851348694
  O         1.5289927781        7.7033632980        1.2096697752
  O         1.9837979351        5.8830470577        9.2635937360
  O         5.8107582269        5.1539384034        9.4460757491
  O         3.6479285107        7.8442170589        9.4025373347
 Ca         5.2217756180        9.4311108692        6.5781955078
 Ca         1.9878031802        6.2605632990        6.9086836448
 Ca         6.3053694506        6.0483287755        6.4363931134
 Ca         1.0070726583        9.8064795279        6.6272426048
 Si        -1.4340561181        5.0660346201        8.3241389773
 Si        -2.1959541849       10.2483488000        6.3867697479
 Si        -1.0695782187        7.3667852413        6.3501005331
  O        -5.3242370993       11.4423485161        7.6899173809
  O         4.1049152956        5.3032313984        6.6233392944
  O        -0.9791047547       11.1360627923        5.7830454536
  O        -3.4127992948        9.9857374955        5.3646434497
  O        -2.7345215861       10.8068393389        7.8359465633
  O        -0.9057009083        6.5279604918        7.7592318003
  O        -1.4567944910        8.8744445322        6.9225411572
  O        -1.4689520407        5.0930700829        9.9342114165
  O         0.4384991428        7.5538627657        5.7805828796
  O        -2.2010931816        6.7824465048        5.3575541749
  O         3.0106925638        8.4878678371        6.9111959448
  O        -4.2072590971        7.8768987548        7.9056456600
  O         1.0343908080       10.6423524638        8.8234467895
  O         0.1005895308       12.0608792375        1.0428298039
  O        -3.8219879245       12.4014999054        0.7069808912
  O        -1.4838910810        9.9195040144        0.7164291802
 Ca         6.7994599957       10.1952556579        0.0250881293
  H         3.1753379047        0.8772462754        0.5888412949
  H         4.6571076059        1.3755987698        0.6459833426
  H         5.1544502038       -0.2203963483        9.5345022897
  H         4.9972518345       -1.8249518281        9.2743994037
  H         8.0941558500       -2.5502942577        9.9831656685
  H         9.1049314244       -1.9272384187        8.8703038360
  H         5.6731048383        1.8256816363        9.9101371399
  H         6.0083007465        1.2268432426        8.4155998164
  H         3.8942096353        3.2871710479        9.6430952355
  H         4.2385180108        4.4500997961        8.6844034898
  H         1.9417966432        4.5320553321        0.6436017684
  H         2.1072133747        6.1189377351        0.9693381651
  H        -2.0615214692        5.8427903477        1.3552825875
  H        -1.0233888894        6.4489646403        0.3068002996
  H         1.0526697155        2.8047302434        1.6869693944
  H         1.4046591457        2.2190633553        0.2677711415
  H         0.6894295923        7.7309724055        0.5806192428
  H         2.1823974694        8.2155531165        0.6505722574
  H         2.6626796785        6.6129092517        9.4926374865
  H         2.5044372286        5.0105151630        9.2453719601
  H         5.6330190430        4.2976302383        9.9877384852
  H         6.6166583351        4.9071717663        8.8777954583
  H         3.1979744049        8.6587389245        9.9160221397
  H         3.5350440799        8.0759026703        8.4277318849
  H         1.4294265566       10.1338475719        9.6482171774
  H         6.7222508451       -2.3026410509        8.6836615444
  H        -0.5165744850       11.3881366123        0.6416745542
  H        -0.3559296489       12.9670282171        0.9932230556
  H        -4.5349508218       12.6767292964        1.3539292370
  H        -3.4897650949       13.2926057223        0.2979598439
  H        -1.4187434380        9.6712750980        1.6844908658
  H        -1.0611594856        9.0713943989        0.2639331566
  H         0.5628138486        5.3489067004        4.4841520172
  H         1.3469700569        2.7071478509        4.2054663241
  H        -0.5410821628        3.6784228211        2.3908082544
  H         6.3980254585       -1.3161465601        5.6762411466
  H         5.6961720472        1.2389114308        6.0288814088
  H        -0.8051894433        1.3522458370        7.9374665980
  H        -1.9071805294       12.2100483283        4.4858007634
  H        -1.1257663895        9.5677706310        4.2025994776
  H        -3.0117196987       10.5484286538        2.3883463834
  H         3.9393643308        5.5224378343        5.6731167736
  H         3.2254787785        8.1200171710        6.0231344396
  H        -3.2861354793        8.2168615966        7.9411599208
     138
 i =        3, E =     -1761.2504834156
 Ca        -0.7427430774        1.4095427041        3.7016229498
 Ca         2.5195521086        4.5796181190        3.2878399532
 Ca        -1.8801057250        4.8569354100        3.9423733056
 Ca         3.4677369964        0.9892482050        3.5167361376
 Si         5.9469146006        5.8135230212        1.9717017317
 Si         6.7224434759        0.6982579006        3.7997325557
 Si         5.5196368308        3.5206301926        3.9405404499
  O         4.9352225524       12.9658748517        2.6017263338
  O         0.3388113746        5.5127035639        3.5340478821
  O         5.5135169981       -0.2571322466        4.3091999632
  O         7.8591571542        0.8777545766        4.9430525834
  O         7.4358883381        0.2765329828        2.3765313898
  O         5.2254775217        4.4782151541        2.6268103706
  O         6.0330454263        2.1005666899        3.3018662999
  O         6.0144342453        5.6733683563        0.3678354684
  O         4.0156174623        3.1818518919        4.4553318388
  O         6.6212665206        4.1200509808        4.9636465537
  O         1.4680071659        2.3098575436        3.3126375223
  O        -1.3900237708        3.1758327380        2.3905529821
  O         4.0080361124        0.8775285448        1.2215078659
  O         4.4636219540       -0.9432892746        9.3323453948
  O         8.2955429489       -1.6685489734        9.4347799346
  O         6.1335679597        1.0139685166        9.3934299473
 Ca         7.6857836243        2.6104211294        6.5925001921
 Ca         4.4425150928       -0.5524702782        6.9751764208
 Ca         8.7627958443       -0.7757874734        6.4388712137
 Ca         3.4782138120        2.9920872636        6.6180066336
 Si         1.0546147376       -1.7478055702        8.3244224213
 Si         0.2864784102        3.4278387129        6.4031195128
 Si         1.4116296424        0.5372847911        6.3587646404
  O        -2.8745722467        4.6615901454        7.6920823295
  O         6.5620340146       -1.4897901883        6.6339966926
  O         1.5073992709        4.3026148721        5.7818544362
  O        -0.9377850974        3.1766105811        5.3808335368
  O        -0.2471189136        4.0181455974        7.8391947796
  O         1.5883233719       -0.2823400258        7.7747983814
  O         1.0206423405        2.0424675774        6.9254136952
  O         1.0208974816       -1.7271907669        9.9369656206
  O         2.9171378565        0.7093286087        5.7808633914
  O         0.2730233983       -0.0575082223        5.3811208617
  O         5.4928183516        1.6469792831        6.9062267540
  O        -1.7268863789        1.0278580383        7.9131139687
  O         3.4941895280        3.8007217045        8.8227503326
  O         2.5353951541        5.2204877587        1.0575333713
  O        -1.3558929925        5.5705707868        0.7029614372
  O         0.9652360617        3.0674962743        0.7247150416
 Ca         9.2719050189        3.3336385096        0.0280086731
 Ca        -3.2135023688        8.2302592996        3.6822419043
 Ca         0.0452423347       11.3776545270        3.2531078172
 Ca        -4.3450879548       11.6649505962        3.9378064918
 Ca         0.9773280029        7.7937404092        3.5154708715
 Si         3.4760599545       12.6241716845        1.9728679220
 Si         4.2428145220        7.5040647369        3.7907376925
 Si         3.0438325485       10.3300893935        3.9303678342
  O         7.3994312544        6.1593141568        2.6057390267
  O        -2.1242821280       12.3271426131        3.5258257773
  O         3.0151579799        6.5768341774        4.3188822082
  O         5.3789272620        7.7063358931        4.9348992626
  O         4.9267012185        7.0499651346        2.3678664393
  O         2.7534345319       11.2831828141        2.6174559357
  O         3.5522366468        8.9055477583        3.2952034809
  O         3.5350881761       12.4909812263        0.3640912719
  O         1.5359409918       10.0196872907        4.4539292206
  O         4.1461647243       10.9365438795        4.9517328014
  O        -1.0159566533        9.1568528794        3.3118829721
  O        -3.8458923140       10.0200252783        2.3814038719
  O         1.5239724550        7.7032762620        1.2091989979
  O         1.9799082271        5.8826190196        9.2653589501
  O         5.8047127492        5.1574496601        9.4458088355
  O         3.6535203616        7.8377361759        9.3978166117
 Ca         5.2163778712        9.4283058698        6.5788528730
 Ca         1.9837759014        6.2571622333        6.9094374412
 Ca         6.3027376846        6.0441925799        6.4317815018
 Ca         0.9981721034        9.8021550147        6.6262599673
 Si        -1.4317858614        5.0637635081        8.3256353246
 Si        -2.1895035647       10.2409651594        6.3874175066
 Si        -1.0651757851        7.3583222458        6.3483723920
  O        -5.3299568571       11.4422611732        7.6893074147
  O         4.1023142866        5.3028852286        6.6231539966
  O        -0.9808621509       11.1338353001        5.7797625271
  O        -3.4093786215        9.9844310897        5.3669645790
  O        -2.7164844711       10.8074029735        7.8375968380
  O        -0.9079569374        6.5249967396        7.7603682076
  O        -1.4627791937        8.8606312530        6.9216436747
  O        -1.4751298437        5.0931403463        9.9353225954
  O         0.4409988628        7.5538903340        5.7775531628
  O        -2.1976532931        6.7758198840        5.3585361121
  O         3.0129415481        8.4816126646        6.9125081680
  O        -4.2088872749        7.8725334895        7.9088830996
  O         1.0358911613       10.6360538536        8.8234396921
  O         0.1040801384       12.0582328277        1.0454595125
  O        -3.8312882946       12.3876032837        0.7020987339
  O        -1.4773445466        9.9274201254        0.7179771453
 Ca         6.8003166539       10.1850542829        0.0217040988
  H         3.1694449360        0.8888120230        0.5913553348
  H         4.6577511445        1.3829379851        0.6438940870
  H         5.1475715063       -0.2143566999        9.5412720735
  H         4.9940005838       -1.8189525125        9.2763966956
  H         8.0999126071       -2.5398777455        9.9816076497
  H         9.1035084406       -1.9200339210        8.8737631902
  H         5.6783934092        1.8277662730        9.9087236153
  H         6.0097278479        1.2310495236        8.4153743008
  H         3.8981934487        3.2903916651        9.6428013534
  H         4.2399926690        4.4530456787        8.6854526196
  H         1.9372849878        4.5359989153        0.6453086788
  H         2.0997473366        6.1209936985        0.9686099911
  H        -2.0668435050        5.8433243575        1.3522823607
  H        -1.0291234282        6.4477136662        0.3066955482
  H         1.0506922260        2.8097563972        1.6898279074
  H         1.4055934218        2.2294677881        0.2675732671
  H         0.6844858186        7.7308786531        0.5799881115
  H         2.1781070380        8.2131187537        0.6496759078
  H         2.6596695645        6.6135707602        9.4909343407
  H         2.5003885885        5.0106842461        9.2474514608
  H         5.6326655073        4.3012272085        9.9881613176
  H         6.6119086128        4.9120740836        8.8784544049
  H         3.2005083844        8.6497663628        9.9140141038
  H         3.5334082374        8.0712578122        8.4246172389
  H         1.4306772719       10.1254931794        9.6467741394
  H         6.7290073218       -2.3149479665        8.6847383719
  H        -0.5093637832       11.3848651129        0.6378142385
  H        -0.3515917158       12.9637860426        0.9980277369
  H        -4.5391088227       12.6705527609        1.3518791455
  H        -3.4949571632       13.2779913096        0.3002480082
  H        -1.4223977577        9.6664839346        1.6839068186
  H        -1.0606237724        9.0744851525        0.2654584609
  H         0.5621333250        5.3443509074        4.4835326176
  H         1.3508157890        2.7088930179        4.2044595043
  H        -0.5426832103        3.6787280904        2.3898378734
  H         6.3926763422       -1.2997574130        5.6777577086
  H         5.6957434202        1.2401367217        6.0303948207
  H        -0.8021185088        1.3565074176        7.9382720218
  H        -1.9016930765       12.1945220822        4.4813235314
  H        -1.1269321297        9.5631779808        4.2019313742
  H        -3.0099898739       10.5426818815        2.3861529264
  H         3.9386777693        5.5246880437        5.6730330825
  H         3.2192961562        8.1153605496        6.0217643464
  H        -3.2883575533        8.2153437497        7.9410246733
     138
 i =        4, E =     -1761.2517826327
 Ca        -0.7443181655        1.4067767370        3.7028793543
 Ca         2.5178670714        4.5722913633        3.2821411213
 Ca        -1.8828718996        4.8513332506        3.9404400573
 Ca         3.4686428118        0.9796040056        3.5207080038
 Si         5.9459485263        5.8129580433        1.9692199558
 Si         6.7223937912        0.6974373913        3.7931724067
 Si         5.5161199768        3.5233898839        3.9413030964
  O         4.9382370770       12.9520094633        2.6092607771
  O         0.3371527358        5.5151210424        3.5338375792
  O         5.5114997563       -0.2580770183        4.2989792404
  O         7.8572829382        0.8837927547        4.9398028631
  O         7.4354840148        0.2872870161        2.3663829158
  O         5.2215402939        4.4796532287        2.6263926513
  O         6.0266686625        2.1023055770        3.3074197746
  O         6.0182153958        5.6765286602        0.3654368000
  O         4.0120772906        3.1872898316        4.4552882332
  O         6.6111776367        4.1283965983        4.9667208685
  O         1.4652665338        2.3033536456        3.3138114521
  O        -1.3897342855        3.1737519419        2.3918751991
  O         4.0013144331        0.8924393944        1.2220375890
  O         4.4585478682       -0.9408662530        9.3293628646
  O         8.2898361821       -1.6602037134        9.4369891384
  O         6.1334057884        1.0149084815        9.3925185179
 Ca         7.6825337061        2.6151186364        6.5938617753
 Ca         4.4346369009       -0.5572705100        6.9724589174
 Ca         8.7604922704       -0.7788767521        6.4332487648
 Ca         3.4780568332        2.9957090087        6.6183209666
 Si         1.0495652167       -1.7460723929        8.3298182366
 Si         0.2874776425        3.4285631841        6.4045409662
 Si         1.4106930125        0.5337295486        6.3555957710
  O        -2.8724965447        4.6604281981        7.6927470153
  O         6.5562737559       -1.4922998304        6.6313648616
  O         1.5111175224        4.2995797635        5.7833289972
  O        -0.9394884703        3.1896016037        5.3823288146
  O        -0.2427191923        4.0194948555        7.8416872332
  O         1.5891557810       -0.2892443724        7.7714773625
  O         1.0165498800        2.0378055436        6.9225818297
  O         1.0108840573       -1.7169514877        9.9407058702
  O         2.9158787149        0.7113086415        5.7797550708
  O         0.2715158529       -0.0558032501        5.3777910074
  O         5.4891198834        1.6609965445        6.9053050197
  O        -1.7252301465        1.0318815861        7.9113379815
  O         3.4955177810        3.8056278809        8.8227078376
  O         2.5322653089        5.2238767293        1.0571227155