 DBCSR| CPU Multiplication driver                                           XSMM (U)
 DBCSR| Multrec recursion limit                                              512 (U)
 DBCSR| Multiplication stack size                                           1000 (D)
 DBCSR| Maximum elements for images                                    UNLIMITED (U)
 DBCSR| Multiplicative factor virtual images                                   1 (U)
 DBCSR| Use multiplication densification                                       T (D)
 DBCSR| Multiplication size stacks                                             3 (U)
 DBCSR| Use memory pool for CPU allocation                                     F (U)
 DBCSR| Number of 3D layers                                               SINGLE (U)
 DBCSR| Use MPI memory allocation                                              F (U)
 DBCSR| Use RMA algorithm                                                      F (U)
 DBCSR| Use Communication thread                                               T (U)
 DBCSR| Communication thread load                                             83 (D)
 DBCSR| MPI: My process id                                                     0
 DBCSR| MPI: Number of processes                                              52
 DBCSR| OMP: Current number of threads                                         2
 DBCSR| OMP: Max number of threads                                             2
 DBCSR| Split modifier for TAS multiplication algorithm                  1.0E+00 (U)


  **** **** ******  **  PROGRAM STARTED AT               2025-01-16 07:09:37.835
 ***** ** ***  *** **   PROGRAM STARTED ON                           ubuntu-GPU2
 **    ****   ******    PROGRAM STARTED BY                                   zkm
 ***** **    ** ** **   PROGRAM PROCESS ID                               3480832
  **** **  *******  **  PROGRAM STARTED IN /home/zkm/CP2K/Generate_dataset/Jenni
                                           te/Elastic/elastic_cp2k/example/epsil
                                           onzz/neg

 CP2K| version string:                                       CP2K version 2024.3
 CP2K| source code revision number:                                  git:6712648
 CP2K| cp2kflags: omp libint fftw3 libxc libgrpp pexsi elpa parallel scalapack m
 CP2K|            pi_f08 cosma quip xsmm plumed2 spglib mkl sirius libvori libbq
 CP2K|            qb libvdwxc hdf5
 CP2K| is freely available from                            https://www.cp2k.org/
 CP2K| Program compiled at            2024年 10月 05日 星期六 13:00:57 CST
 CP2K| Program compiled on                                           ubuntu-GPU2
 CP2K| Program compiled for                                                local
 CP2K| Data directory path                       /home/zkm/CP2K/cp2k-2024.3/data
 CP2K| Input file name                                                geoopt.inp

 GLOBAL| Force Environment number                                              1
 GLOBAL| Basis set file name                                        BASIS_MOLOPT
 GLOBAL| Potential file name                                           POTENTIAL
 GLOBAL| MM Potential file name                                     MM_POTENTIAL
 GLOBAL| Coordinate file name                                          coord.xyz
 GLOBAL| Method name                                                        CP2K
 GLOBAL| Project name                                                     geoopt
 GLOBAL| Run type                                                        GEO_OPT
 GLOBAL| FFT library                                                       FFTW3
 GLOBAL| Diagonalization library                                            ELPA
 GLOBAL| DGEMM library                                                      BLAS
 GLOBAL| Minimum number of eigenvectors for ELPA usage                        16
 GLOBAL| Orthonormality check for eigenvectors                          DISABLED
 GLOBAL| Matrix multiplication library                                     COSMA
 GLOBAL| All-to-all communication in single precision                          F
 GLOBAL| FFTs using library dependent lengths                                  F
 GLOBAL| Grid backend                                                       AUTO
 GLOBAL| Global print level                                                  LOW
 GLOBAL| MPI I/O enabled                                                       T
 GLOBAL| Total number of message passing processes                            52
 GLOBAL| Number of threads for this process                                    2
 GLOBAL| This output is from process                                           0
 GLOBAL| Stack size for threads created by OpenMP (OMP_STACKSIZE)        default
 GLOBAL| CPU model name            Intel(R) Xeon(R) Platinum 8179M CPU @ 2.40GHz
 GLOBAL| CPUID                                                              1003

 MEMORY| system memory details [Kb]
 MEMORY|                        rank 0           min           max       average
 MEMORY| MemTotal            527974664     527974664     527974664     527974664
 MEMORY| MemFree             104959844     104959844     104959844     104959844
 MEMORY| Buffers               6978732       6978732       6978732       6978732
 MEMORY| Cached              241377684     241377684     241377684     241377684
 MEMORY| Slab                 39926464      39926464      39926464      39926464
 MEMORY| SReclaimable         37100896      37100896      37100896      37100896
 MEMORY| MemLikelyFree       390417156     390417156     390417156     390417156


 GENERATE|  Preliminary Number of Bonds generated:                             0
 GENERATE|  Achieved consistency in connectivity generation.

 *******************************************************************************
 *******************************************************************************
 **                                                                           **
 **     #####                         ##              ##                      **
 **    ##   ##            ##          ##              ##                      **
 **   ##     ##                       ##            ######                    **
 **   ##     ##  ##   ##  ##   #####  ##  ##   ####   ##    #####    #####    **
 **   ##     ##  ##   ##  ##  ##      ## ##   ##      ##   ##   ##  ##   ##   **
 **   ##  ## ##  ##   ##  ##  ##      ####     ###    ##   ######   ######    **
 **    ##  ###   ##   ##  ##  ##      ## ##      ##   ##   ##       ##        **
 **     #######   #####   ##   #####  ##  ##  ####    ##    #####   ##        **
 **           ##                                                    ##        **
 **                                                                           **
 **                                                ... make the atoms dance   **
 **                                                                           **
 **            Copyright (C) by CP2K developers group (2000-2024)             **
 **                      J. Chem. Phys. 152, 194103 (2020)                    **
 **                                                                           **
 *******************************************************************************


 TOTAL NUMBERS AND MAXIMUM NUMBERS

  Total number of            - Atomic kinds:                                   4
                             - Atoms:                                        138
                             - Shell sets:                                   138
                             - Shells:                                       620
                             - Primitive Cartesian functions:                696
                             - Cartesian basis functions:                   1554
                             - Spherical basis functions:                   1460

  Maximum angular momentum of- Orbital basis functions:                        2
                             - Local part of the GTH pseudopotential:          2
                             - Non-local part of the GTH pseudopotential:      3


 SCF PARAMETERS         Density guess:                                    ATOMIC
                        --------------------------------------------------------
                        max_scf:                                              25
                        max_scf_history:                                       0
                        max_diis:                                              4
                        --------------------------------------------------------
                        eps_scf:                                        1.00E-07
                        eps_scf_history:                                0.00E+00
                        eps_diis:                                       1.00E-01
                        eps_eigval:                                     1.00E-05
                        --------------------------------------------------------
                        level_shift [a.u.]:                             0.000000
                        --------------------------------------------------------
                        Outer loop SCF in use 
                        No variables optimised in outer loop
                        eps_scf                                         1.00E-07
                        max_scf                                               20
                        No outer loop optimization
                        step_size                                       5.00E-01

 BFGS| Use rational function optimization for step estimation:                NO
 BFGS| Use model Hessian for initial guess:                                  YES
 BFGS| Restart Hessian:                                                       NO
 BFGS| Trust radius:                                                       0.378

 *******************************************************************************
 ***                     STARTING GEOMETRY OPTIMIZATION                      ***
 ***                                   BFGS                                  ***
 *******************************************************************************

 Number of electrons:                                                        656
 Number of occupied orbitals:                                                328
 Number of molecular orbitals:                                               328

 Number of orbital functions:                                               1460
 Number of independent orbital functions:                                   1460

 Extrapolation method: initial_guess


 SCF WAVEFUNCTION OPTIMIZATION

  ----------------------------------- OT ---------------------------------------
  Minimizer      : DIIS                : direct inversion
                                         in the iterative subspace
                                         using   7 DIIS vectors
                                         safer DIIS on
  Preconditioner : FULL_KINETIC        : inversion of T + eS
  Precond_solver : DEFAULT
  stepsize       :    0.15000000                  energy_gap     :    0.20000000
  eps_taylor     :   0.10000E-15                  max_taylor     :             4
  ----------------------------------- OT ---------------------------------------

  Step     Update method      Time    Convergence         Total energy    Change
  ------------------------------------------------------------------------------
     1 OT DIIS     0.15E+00    1.0     0.01886313     -1710.4355284138 -1.71E+03
     2 OT DIIS     0.15E+00    1.7     0.01126368     -1728.7887973494 -1.84E+01
     3 OT DIIS     0.15E+00    1.7     0.00834875     -1737.9774220592 -9.19E+00
     4 OT DIIS     0.15E+00    1.7     0.00557222     -1746.5630476539 -8.59E+00
     5 OT DIIS     0.15E+00    1.7     0.00413238     -1751.0200022506 -4.46E+00
     6 OT DIIS     0.15E+00    1.7     0.00318741     -1753.8905310762 -2.87E+00
     7 OT DIIS     0.15E+00    1.7     0.00244223     -1756.0308946079 -2.14E+00
     8 OT DIIS     0.15E+00    1.7     0.00192965     -1757.4309513427 -1.40E+00
     9 OT DIIS     0.15E+00    1.7     0.00155415     -1758.3661822580 -9.35E-01
    10 OT DIIS     0.15E+00    1.7     0.00133138     -1758.9804851013 -6.14E-01
    11 OT DIIS     0.15E+00    1.7     0.00114267     -1759.4014270289 -4.21E-01
    12 OT DIIS     0.15E+00    1.7     0.00101856     -1759.7668331694 -3.65E-01
    13 OT DIIS     0.15E+00    1.7     0.00087525     -1760.0304519896 -2.64E-01
    14 OT DIIS     0.15E+00    1.7     0.00076623     -1760.2583900732 -2.28E-01
    15 OT DIIS     0.15E+00    2.2     0.00066482     -1760.4486425753 -1.90E-01
    16 OT DIIS     0.15E+00    1.7     0.00060442     -1760.5775958561 -1.29E-01
    17 OT DIIS     0.15E+00    1.7     0.00056194     -1760.6824993152 -1.05E-01
    18 OT DIIS     0.15E+00    1.7     0.00053060     -1760.7639124991 -8.14E-02
    19 OT DIIS     0.15E+00    1.7     0.00051047     -1760.8438496697 -7.99E-02
    20 OT DIIS     0.15E+00    1.7     0.00047429     -1760.9023199157 -5.85E-02
    21 OT DIIS     0.15E+00    1.7     0.00045641     -1760.9608634747 -5.85E-02
    22 OT DIIS     0.15E+00    1.7     0.00041295     -1761.0097157754 -4.89E-02
    23 OT DIIS     0.15E+00    1.7     0.00033600     -1761.0923846360 -8.27E-02
    24 OT DIIS     0.15E+00    1.7     0.00027843     -1761.1420433118 -4.97E-02
    25 OT DIIS     0.15E+00    1.7     0.00023262     -1761.1635881943 -2.15E-02

  Leaving inner SCF loop after reaching    25 steps.


  Electronic density on regular grids:       -655.9999999994        0.0000000006
  Core density on regular grids:              655.9999999997       -0.0000000003
  Total charge density on r-space grids:        0.0000000003
  Total charge density g-space grids:           0.0000000003

  Overlap energy of the core charge distribution:               0.00000060301891
  Self energy of the core charge distribution:              -4144.80997841715816
  Core Hamiltonian energy:                                   1117.71106504399381
  Hartree energy:                                            1613.45453911132790
  Exchange-correlation energy:                               -347.01970507304020
  Dispersion energy:                                           -0.49950946243934

  Total energy:                                             -1761.16358819429774

  outer SCF iter =    1 RMS gradient =   0.23E-03 energy =      -1761.1635881943

  ----------------------------------- OT ---------------------------------------
  Minimizer      : DIIS                : direct inversion
                                         in the iterative subspace
                                         using   7 DIIS vectors
                                         safer DIIS on
  Preconditioner : FULL_KINETIC        : inversion of T + eS
  Precond_solver : DEFAULT
  stepsize       :    0.15000000                  energy_gap     :    0.20000000
  eps_taylor     :   0.10000E-15                  max_taylor     :             4
  ----------------------------------- OT ---------------------------------------

  Step     Update method      Time    Convergence         Total energy    Change
  ------------------------------------------------------------------------------
     1 OT DIIS     0.15E+00    3.4     0.00046949     -1761.1938631663 -3.03E-02
     2 OT DIIS     0.15E+00    1.6     0.00035369     -1761.2073611415 -1.35E-02
     3 OT DIIS     0.15E+00    1.7     0.00025659     -1761.2213295932 -1.40E-02
     4 OT DIIS     0.15E+00    1.7     0.00018834     -1761.2308789478 -9.55E-03
     5 OT DIIS     0.15E+00    1.7     0.00012486     -1761.2378077110 -6.93E-03
     6 OT DIIS     0.15E+00    1.7     0.00007920     -1761.2413546575 -3.55E-03
     7 OT DIIS     0.15E+00    1.7     0.00005577     -1761.2425593604 -1.20E-03
     8 OT DIIS     0.15E+00    1.7     0.00003550     -1761.2432471898 -6.88E-04
     9 OT DIIS     0.15E+00    1.7     0.00002399     -1761.2435105594 -2.63E-04
    10 OT DIIS     0.15E+00    1.7     0.00001714     -1761.2436197612 -1.09E-04
    11 OT DIIS     0.15E+00    1.7     0.00001186     -1761.2436796671 -5.99E-05
    12 OT DIIS     0.15E+00    1.7     0.00000832     -1761.2437074306 -2.78E-05
    13 OT DIIS     0.15E+00    1.7     0.00000592     -1761.2437201466 -1.27E-05
    14 OT DIIS     0.15E+00    1.7     0.00000426     -1761.2437262067 -6.06E-06
    15 OT DIIS     0.15E+00    1.7     0.00000323     -1761.2437289322 -2.73E-06
    16 OT DIIS     0.15E+00    1.7     0.00000244     -1761.2437304924 -1.56E-06
    17 OT DIIS     0.15E+00    2.0     0.00000189     -1761.2437313490 -8.57E-07
    18 OT DIIS     0.15E+00    1.7     0.00000148     -1761.2437318619 -5.13E-07
    19 OT DIIS     0.15E+00    1.7     0.00000114     -1761.2437321916 -3.30E-07
    20 OT DIIS     0.15E+00    1.7     0.00000088     -1761.2437323950 -2.03E-07
    21 OT DIIS     0.15E+00    1.7     0.00000068     -1761.2437325121 -1.17E-07
    22 OT DIIS     0.15E+00   31.7     0.00000052     -1761.2437325856 -7.35E-08
    23 OT DIIS     0.15E+00    1.7     0.00000041     -1761.2437326291 -4.35E-08
    24 OT DIIS     0.15E+00    1.7     0.00000032     -1761.2437326557 -2.66E-08
    25 OT DIIS     0.15E+00    1.7     0.00000025     -1761.2437326719 -1.62E-08

  Leaving inner SCF loop after reaching    25 steps.


  Electronic density on regular grids:       -655.9999999994        0.0000000006
  Core density on regular grids:              655.9999999997       -0.0000000003
  Total charge density on r-space grids:        0.0000000003
  Total charge density g-space grids:           0.0000000003

  Overlap energy of the core charge distribution:               0.00000060301891
  Self energy of the core charge distribution:              -4144.80997841715816
  Core Hamiltonian energy:                                   1117.73509190236769
  Hartree energy:                                            1613.37868301810590
  Exchange-correlation energy:                               -347.04802031576435
  Dispersion energy:                                           -0.49950946243934

  Total energy:                                             -1761.24373267186979

  outer SCF iter =    2 RMS gradient =   0.25E-06 energy =      -1761.2437326719

  ----------------------------------- OT ---------------------------------------
  Minimizer      : DIIS                : direct inversion
                                         in the iterative subspace
                                         using   7 DIIS vectors
                                         safer DIIS on
  Preconditioner : FULL_KINETIC        : inversion of T + eS
  Precond_solver : DEFAULT
  stepsize       :    0.15000000                  energy_gap     :    0.20000000
  eps_taylor     :   0.10000E-15                  max_taylor     :             4
  ----------------------------------- OT ---------------------------------------

  Step     Update method      Time    Convergence         Total energy    Change
  ------------------------------------------------------------------------------
     1 OT DIIS     0.15E+00    3.8     0.00000020     -1761.2437326816 -9.69E-09
     2 OT DIIS     0.15E+00    1.6     0.00000018     -1761.2437326842 -2.60E-09
     3 OT DIIS     0.15E+00    1.6     0.00000015     -1761.2437326883 -4.18E-09
     4 OT DIIS     0.15E+00    1.6     0.00000009     -1761.2437326952 -6.90E-09

  *** SCF run converged in     4 steps ***


  Electronic density on regular grids:       -655.9999999994        0.0000000006
  Core density on regular grids:              655.9999999997       -0.0000000003
  Total charge density on r-space grids:        0.0000000003
  Total charge density g-space grids:           0.0000000003

  Overlap energy of the core charge distribution:               0.00000060301891
  Self energy of the core charge distribution:              -4144.80997841715816
  Core Hamiltonian energy:                                   1117.73503406340387
  Hartree energy:                                            1613.37873305545850
  Exchange-correlation energy:                               -347.04801253751873
  Dispersion energy:                                           -0.49950946243934

  Total energy:                                             -1761.24373269523517

  outer SCF iter =    3 RMS gradient =   0.86E-07 energy =      -1761.2437326952
  outer SCF loop converged in   3 iterations or   54 steps


 ENERGY| Total FORCE_EVAL ( QS ) energy [a.u.]:            -1761.243732697433188

 ATOMIC FORCES in [a.u.]

 # Atom   Kind   Element          X              Y              Z
      1      1      Ca          0.00035254     0.00085785    -0.00092730
      2      1      Ca         -0.00058792    -0.00010982    -0.00065880
      3      1      Ca          0.00059963    -0.00031799    -0.00076361
      4      1      Ca         -0.00002468    -0.00011363    -0.00207485
      5      2      Si         -0.00016161    -0.00008179     0.00802145
      6      2      Si         -0.00117362     0.00047481    -0.00000490
      7      2      Si         -0.00023757    -0.00099453     0.00008968
      8      3      O          -0.00114357    -0.00038194    -0.00398281
      9      3      O          -0.00057788    -0.00190704     0.00203558
     10      3      O           0.00042995    -0.00194105     0.00276982
     11      3      O           0.00021279    -0.00159635     0.00062426
     12      3      O           0.00031154    -0.00086303    -0.00432748
     13      3      O           0.00052201     0.00133903    -0.00108271
     14      3      O           0.00020974     0.00029226    -0.00323325
     15      3      O           0.00159245    -0.00083950     0.01175172
     16      3      O          -0.00020738    -0.00180112     0.00130659
     17      3      O           0.00005795     0.00011417     0.00239734
     18      3      O          -0.00009317    -0.00100475    -0.00072840
     19      3      O          -0.00000052    -0.00036096    -0.00124091
     20      3      O           0.00324328    -0.00372219     0.00747546
     21      3      O           0.00111918     0.00088698    -0.00409775
     22      3      O           0.00150176     0.00240608    -0.00374196
     23      3      O           0.00016870    -0.00911539    -0.00368036
     24      1      Ca         -0.00068497     0.00049848    -0.00089576
     25      1      Ca          0.00031461     0.00001311    -0.00020736
     26      1      Ca         -0.00018202    -0.00091194    -0.00143607
     27      1      Ca          0.00008176     0.00027847     0.00083952
     28      2      Si          0.00043832    -0.00044537    -0.00592170
     29      2      Si          0.00077446    -0.00006391    -0.00117510
     30      2      Si          0.00048333     0.00050279    -0.00104494
     31      3      O          -0.00058818    -0.00068655    -0.00044074
     32      3      O          -0.00015455     0.00207469    -0.00006827
     33      3      O           0.00027229    -0.00135795     0.00186907
     34      3      O          -0.00149856    -0.00148340     0.00227683
     35      3      O           0.00046215    -0.00051484     0.00059031
     36      3      O          -0.00162328    -0.00355831    -0.00025304
     37      3      O          -0.00168998    -0.00326899     0.00047660
     38      3      O          -0.00346446    -0.00109897    -0.01255940
     39      3      O          -0.00028740    -0.00166493     0.00102713
     40      3      O           0.00061284    -0.00074160     0.00215577
     41      3      O          -0.00115095    -0.00121337    -0.00060534
     42      3      O           0.00152647    -0.00128620    -0.00793936
     43      3      O          -0.00610997     0.00433076    -0.00774319
     44      3      O           0.00086755    -0.00048555    -0.00174529
     45      3      O          -0.00139266    -0.00215081    -0.00132779
     46      3      O          -0.00153262     0.00476002    -0.00051353
     47      1      Ca          0.00016306    -0.00065252     0.01065500
     48      1      Ca          0.00045907     0.00070967    -0.00093733
     49      1      Ca         -0.00073940    -0.00018473    -0.00064387
     50      1      Ca          0.00070853    -0.00043600    -0.00070690
     51      1      Ca         -0.00010087    -0.00009192    -0.00190424
     52      2      Si         -0.00026793     0.00016841     0.00794038
     53      2      Si         -0.00105429     0.00027561     0.00003368
     54      2      Si         -0.00026113    -0.00086366     0.00021854
     55      3      O          -0.00132516    -0.00041702    -0.00387433
     56      3      O          -0.00072165    -0.00186266     0.00224889
     57      3      O           0.00043101    -0.00185661     0.00249935
     58      3      O           0.00021986    -0.00154097     0.00090762
     59      3      O           0.00072498    -0.00080027    -0.00455161
     60      3      O           0.00042490     0.00129910    -0.00118741
     61      3      O           0.00016605     0.00017402    -0.00320443
     62      3      O           0.00174979    -0.00095134     0.01165285
     63      3      O          -0.00027237    -0.00187064     0.00143559
     64      3      O           0.00010364     0.00005228     0.00238315
     65      3      O          -0.00014240    -0.00100883    -0.00090684
     66      3      O          -0.00006389    -0.00026380    -0.00118866
     67      3      O           0.00347585    -0.00332822     0.00637942
     68      3      O           0.00042002     0.00137470    -0.00098875
     69      3      O           0.00137232     0.00237594    -0.00385100
     70      3      O           0.00091636    -0.00529691    -0.00119487
     71      1      Ca         -0.00055625     0.00042405    -0.00096470
     72      1      Ca          0.00035088     0.00001077    -0.00026301
     73      1      Ca         -0.00022847    -0.00084747    -0.00139682
     74      1      Ca          0.00008472     0.00020941     0.00065212
     75      2      Si          0.00027402    -0.00042754    -0.00600352
     76      2      Si          0.00075567     0.00004800    -0.00114337
     77      2      Si          0.00048383     0.00070391    -0.00119421
     78      3      O          -0.00042994    -0.00041003    -0.00023116
     79      3      O           0.00037654     0.00115258    -0.00041566
     80      3      O           0.00004128    -0.00191293     0.00197612
     81      3      O          -0.00144889    -0.00142390     0.00227422
     82      3      O           0.00073117    -0.00010729     0.00055101
     83      3      O          -0.00135898    -0.00335855    -0.00019360
     84      3      O          -0.00163695    -0.00317687     0.00051133
     85      3      O          -0.00347303    -0.00113559    -0.01275824
     86      3      O          -0.00029276    -0.00122702     0.00045846
     87      3      O           0.00051125    -0.00073959     0.00202527
     88      3      O          -0.00120321    -0.00080922    -0.00057544
     89      3      O           0.00135930    -0.00116903    -0.00777358
     90      3      O          -0.00612779     0.00508755    -0.00738356
     91      3      O           0.00081247    -0.00048600    -0.00174274
     92      3      O          -0.00181064    -0.00203216    -0.00149005
     93      3      O          -0.00130239     0.00484346    -0.00052582
     94      1      Ca          0.00012313    -0.00082680     0.01049360
     95      4      H          -0.00096253     0.00010589     0.00353809
     96      4      H           0.00133723     0.00130147    -0.00002482
     97      4      H           0.00115989     0.00130037     0.00032880
     98      4      H           0.00152386    -0.00127568    -0.00069736
     99      4      H           0.00008017     0.00000807    -0.00377039
    100      4      H          -0.00094685    -0.00069106     0.00055374
    101      4      H          -0.00038899     0.00117436    -0.00383104
    102      4      H          -0.00102942     0.00050462     0.00051421
    103      4      H           0.00071846    -0.00135296    -0.00207963
    104      4      H          -0.00058311    -0.00081859     0.00007775
    105      4      H          -0.00034961    -0.00042981     0.00007602
    106      4      H          -0.00054243     0.00126269     0.00028017
    107      4      H           0.00109192    -0.00006620    -0.00073212
    108      4      H          -0.00028611    -0.00054939     0.00379830
    109      4      H           0.00012564    -0.00040560    -0.00091364
    110      4      H          -0.00034478     0.00104373     0.00556410
    111      4      H          -0.00093005     0.00003003     0.00387925
    112      4      H           0.00136666     0.00111952    -0.00014013
    113      4      H           0.00074995     0.00078678     0.00021513
    114      4      H           0.00142301    -0.00164511    -0.00078538
    115      4      H           0.00012263    -0.00007756    -0.00361409
    116      4      H          -0.00073606    -0.00066035     0.00041506
    117      4      H          -0.00036843     0.00064606    -0.00397585
    118      4      H          -0.00103725     0.00032086     0.00060368
    119      4      H           0.00057860    -0.00151644    -0.00209357
    120      4      H          -0.00047784    -0.00089251     0.00014163
    121      4      H          -0.00032559    -0.00049120     0.00006384
    122      4      H          -0.00052868     0.00134502     0.00026050
    123      4      H           0.00091192     0.00010337    -0.00031943
    124      4      H          -0.00011733    -0.00046887     0.00406854
    125      4      H           0.00000502    -0.00031412    -0.00077551
    126      4      H          -0.00040141     0.00116498     0.00552088
    127      4      H          -0.00005489     0.00003870    -0.00011853
    128      4      H          -0.00005221    -0.00002915    -0.00007935
    129      4      H          -0.00004489     0.00001573    -0.00027612
    130      4      H          -0.00001120     0.00012390    -0.00008800
    131      4      H          -0.00002109    -0.00002303    -0.00020248
    132      4      H           0.00049444     0.00026696    -0.00041558
    133      4      H          -0.00002869     0.00001205    -0.00010778
    134      4      H           0.00002562     0.00001648    -0.00008180
    135      4      H          -0.00007079    -0.00005886    -0.00015643
    136      4      H          -0.00002224     0.00010558    -0.00016126
    137      4      H          -0.00011538    -0.00008620    -0.00017590
    138      4      H           0.00047726     0.00027472    -0.00045114
 SUM OF ATOMIC FORCES          -0.01457650    -0.04864161    -0.02878157     0.05836831

 STRESS| Analytical stress tensor [GPa]
 STRESS|                        x                   y                   z
 STRESS|      x        4.36918668570E-01  -1.03781079149E-01   7.33519513969E-02
 STRESS|      y       -1.03781079149E-01   5.04539964534E-01  -8.43668748438E-02
 STRESS|      z        7.33519513969E-02  -8.43668748438E-02   7.23179635014E-01
 STRESS| 1/3 Trace                                             5.54879422706E-01
 STRESS| Determinant                                           1.47090747208E-01

 STRESS| Eigenvectors and eigenvalues of the analytical stress tensor [GPa]
 STRESS|                        1                   2                   3
 STRESS| Eigenvalues   3.61265036334E-01   5.19245029559E-01   7.84128202225E-01
 STRESS|      x           0.818323954106     -0.491688378654      0.297638109846
 STRESS|      y           0.573861202772      0.727866454913     -0.375358153989
 STRESS|      z          -0.032081553711      0.477967532485      0.877791439809

 OPT| **************************************************************************
 OPT| Step number                                                              0
 OPT| Optimization method                                                   BFGS
 OPT| Total energy [hartree]                                    -1761.2437326974
 OPT| Used time [s]                                                      126.222
 OPT| **************************************************************************
 OPT| Estimated peak process memory [MiB]                                    451

 --------------------------
 OPTIMIZATION STEP:      1
 --------------------------

 Number of electrons:                                                        656
 Number of occupied orbitals:                                                328
 Number of molecular orbitals:                                               328

 Number of orbital functions:                                               1460
 Number of independent orbital functions:                                   1460

 Extrapolation method: ASPC


 SCF WAVEFUNCTION OPTIMIZATION

  ----------------------------------- OT ---------------------------------------
  Minimizer      : DIIS                : direct inversion
                                         in the iterative subspace
                                         using   7 DIIS vectors
                                         safer DIIS on
  Preconditioner : FULL_KINETIC        : inversion of T + eS
  Precond_solver : DEFAULT
  stepsize       :    0.15000000                  energy_gap     :    0.20000000
  eps_taylor     :   0.10000E-15                  max_taylor     :             4
  ----------------------------------- OT ---------------------------------------

  Step     Update method      Time    Convergence         Total energy    Change
  ------------------------------------------------------------------------------
     1 OT DIIS     0.15E+00    1.0     0.00018427     -1761.2449479660 -1.76E+03
     2 OT DIIS     0.15E+00    1.7     0.00012035     -1761.2469249276 -1.98E-03
     3 OT DIIS     0.15E+00    1.7     0.00006451     -1761.2484688451 -1.54E-03
     4 OT DIIS     0.15E+00    1.7     0.00003555     -1761.2491278894 -6.59E-04
     5 OT DIIS     0.15E+00    1.7     0.00002226     -1761.2493551292 -2.27E-04
     6 OT DIIS     0.15E+00    1.7     0.00001450     -1761.2494488874 -9.38E-05
     7 OT DIIS     0.15E+00    1.7     0.00000904     -1761.2494908148 -4.19E-05
     8 OT DIIS     0.15E+00    1.7     0.00000575     -1761.2495064304 -1.56E-05
     9 OT DIIS     0.15E+00    1.6     0.00000404     -1761.2495116873 -5.26E-06
    10 OT DIIS     0.15E+00    1.7     0.00000269     -1761.2495145317 -2.84E-06
    11 OT DIIS     0.15E+00    1.6     0.00000176     -1761.2495159152 -1.38E-06
    12 OT DIIS     0.15E+00    1.6     0.00000122     -1761.2495164801 -5.65E-07
    13 OT DIIS     0.15E+00    1.7     0.00000082     -1761.2495167589 -2.79E-07
    14 OT DIIS     0.15E+00    1.6     0.00000051     -1761.2495168963 -1.37E-07
    15 OT DIIS     0.15E+00    1.6     0.00000035     -1761.2495169427 -4.64E-08
    16 OT DIIS     0.15E+00    1.7     0.00000024     -1761.2495169633 -2.07E-08
    17 OT DIIS     0.15E+00    1.7     0.00000017     -1761.2495169730 -9.67E-09
    18 OT DIIS     0.15E+00    1.7     0.00000012     -1761.2495169772 -4.19E-09
    19 OT DIIS     0.15E+00    1.7     0.00000008     -1761.2495169796 -2.36E-09

  *** SCF run converged in    19 steps ***


  Electronic density on regular grids:       -655.9999999994        0.0000000006
  Core density on regular grids:              655.9999999997       -0.0000000003
  Total charge density on r-space grids:        0.0000000003
  Total charge density g-space grids:           0.0000000003

  Overlap energy of the core charge distribution:               0.00000060461601
  Self energy of the core charge distribution:              -4144.80997841715816
  Core Hamiltonian energy:                                   1117.66032395544403
  Hartree energy:                                            1613.42961571872820
  Exchange-correlation energy:                               -347.02976959453531
  Dispersion energy:                                           -0.49970924665398

  Total energy:                                             -1761.24951697955930

  outer SCF iter =    1 RMS gradient =   0.84E-07 energy =      -1761.2495169796
  outer SCF loop converged in   1 iterations or   19 steps


 ENERGY| Total FORCE_EVAL ( QS ) energy [a.u.]:            -1761.249516980657063

 ATOMIC FORCES in [a.u.]

 # Atom   Kind   Element          X              Y              Z
      1      1      Ca         -0.00013419    -0.00087505     0.00174677
      2      1      Ca          0.00071884     0.00000273    -0.00025935
      3      1      Ca         -0.00029588     0.00052811     0.00138889
      4      1      Ca          0.00001623    -0.00023593     0.00071920
      5      2      Si          0.00016092    -0.00076132    -0.00178310
      6      2      Si          0.00061779    -0.00092663     0.00236380
      7      2      Si         -0.00137738     0.00004008     0.00085882
      8      3      O          -0.00270219    -0.00023018     0.00064517
      9      3      O          -0.00010558    -0.00079719     0.00123506
     10      3      O          -0.00182891     0.00016869    -0.00152371
     11      3      O           0.00006107     0.00071744    -0.00124834
     12      3      O           0.00248575    -0.00276315    -0.00101440
     13      3      O           0.00042075     0.00286458     0.00143568
     14      3      O          -0.00024403    -0.00052312    -0.00064433
     15      3      O           0.00079009    -0.00014031     0.00228604
     16      3      O          -0.00052978    -0.00149246     0.00071601
     17      3      O           0.00002618    -0.00153747    -0.00062144
     18      3      O          -0.00001330    -0.00032065    -0.00073932
     19      3      O           0.00024521    -0.00010291    -0.00041350
     20      3      O          -0.00209393    -0.00076599     0.00436115
     21      3      O          -0.00061669     0.00017201    -0.00029299
     22      3      O          -0.00003020    -0.00210329    -0.00064493
     23      3      O          -0.00186274     0.00242876    -0.00075323
     24      1      Ca          0.00016218    -0.00265980     0.00048679
     25      1      Ca          0.00079677    -0.00012320     0.00041150
     26      1      Ca         -0.00042148     0.00134290     0.00025622
     27      1      Ca          0.00018141    -0.00013121    -0.00007466
     28      2      Si          0.00039291     0.00176700    -0.00012044
     29      2      Si         -0.00024060    -0.00112100     0.00102053
     30      2      Si         -0.00113027    -0.00129962     0.00081732
     31      3      O           0.00244512    -0.00131099    -0.00042082
     32      3      O          -0.00055763     0.00097177    -0.00023957
     33      3      O          -0.00046336    -0.00169757    -0.00091681
     34      3      O           0.00123329    -0.00017386    -0.00152208
     35      3      O          -0.00075549     0.00100683     0.00020226
     36      3      O          -0.00021722    -0.00276774    -0.00030260
     37      3      O           0.00233192    -0.00074004    -0.00243288
     38      3      O          -0.00190231    -0.00056576     0.00031806
     39      3      O          -0.00170484     0.00038308    -0.00048027
     40      3      O           0.00053248    -0.00089384    -0.00168263
     41      3      O          -0.00040526     0.00035521    -0.00017697
     42      3      O          -0.00009824     0.00038113     0.00048246
     43      3      O           0.00270932     0.00033293     0.00120382
     44      3      O           0.00003877    -0.00063307     0.00151647
     45      3      O           0.00037059     0.00239057     0.00115584
     46      3      O           0.00150691    -0.00235032     0.00290713
     47      1      Ca         -0.00079043    -0.00050813    -0.00025130
     48      1      Ca         -0.00011876    -0.00093314     0.00170195
     49      1      Ca          0.00065574     0.00002295    -0.00019340
     50      1      Ca         -0.00030147     0.00055216     0.00142268
     51      1      Ca          0.00006595    -0.00020828     0.00058833
     52      2      Si          0.00000481    -0.00049375    -0.00192093
     53      2      Si          0.00055177    -0.00084853     0.00231272
     54      2      Si         -0.00134142     0.00002652     0.00088364
     55      3      O          -0.00255090    -0.00031298     0.00046196
     56      3      O          -0.00011303    -0.00079206     0.00129230
     57      3      O          -0.00162080     0.00006826    -0.00156732
     58      3      O           0.00011537     0.00060634    -0.00099359
     59      3      O           0.00245186    -0.00276776    -0.00127592
     60      3      O           0.00040325     0.00273155     0.00142846
     61      3      O          -0.00009402    -0.00056280    -0.00084651
     62      3      O           0.00084388    -0.00048161     0.00216376
     63      3      O          -0.00061477    -0.00138517     0.00087307
     64      3      O           0.00004440    -0.00151813    -0.00066060
     65      3      O          -0.00002687    -0.00028580    -0.00091295
     66      3      O           0.00032007    -0.00021221    -0.00034219
     67      3      O          -0.00279256    -0.00092534     0.00399084
     68      3      O          -0.00063657     0.00035670     0.00031205
     69      3      O          -0.00028971    -0.00228077    -0.00060700
     70      3      O          -0.00215627     0.00195960    -0.00117839
     71      1      Ca          0.00014000    -0.00251571     0.00056746
     72      1      Ca          0.00067962    -0.00008069     0.00034781
     73      1      Ca         -0.00037913     0.00133978     0.00018041
     74      1      Ca          0.00008546     0.00026625    -0.00002335
     75      2      Si          0.00034396     0.00150268    -0.00002618
     76      2      Si          0.00007050    -0.00075844     0.00108693
     77      2      Si         -0.00123365    -0.00088356     0.00052033
     78      3      O           0.00249806    -0.00135169    -0.00045426
     79      3      O           0.00000122     0.00041817    -0.00045729
     80      3      O          -0.00062133    -0.00201122    -0.00143513
     81      3      O           0.00122834    -0.00023469    -0.00134165
     82      3      O          -0.00042638     0.00099655     0.00008263
     83      3      O           0.00014758    -0.00276484    -0.00016270
     84      3      O           0.00217681    -0.00108121    -0.00233435
     85      3      O          -0.00216297    -0.00053677     0.00008017
     86      3      O          -0.00141242     0.00028230    -0.00059920
     87      3      O           0.00049471    -0.00092939    -0.00167625
     88      3      O          -0.00058434     0.00007472    -0.00008260
     89      3      O          -0.00019828     0.00021042     0.00059075
     90      3      O           0.00242671     0.00079151     0.00089725
     91      3      O           0.00010201    -0.00054888     0.00145872
     92      3      O           0.00059600     0.00215705     0.00105098
     93      3      O           0.00149236    -0.00250931     0.00278615
     94      1      Ca         -0.00073345    -0.00034500    -0.00013330
     95      4      H           0.00161864    -0.00028949     0.00139824
     96      4      H          -0.00038965    -0.00026883     0.00010092
     97      4      H           0.00112564     0.00181157    -0.00099858
     98      4      H           0.00062440    -0.00106329    -0.00131928
     99      4      H          -0.00076678     0.00119603    -0.00110544
    100      4      H           0.00020770     0.00112947    -0.00129293
    101      4      H           0.00053165    -0.00188168     0.00051276
    102      4      H           0.00054796    -0.00256342    -0.00138395
    103      4      H          -0.00214927    -0.00195705    -0.00046726
    104      4      H          -0.00110894     0.00174164    -0.00257044
    105      4      H          -0.00027206    -0.00007868    -0.00051722
    106      4      H          -0.00013242     0.00066843    -0.00030759
    107      4      H          -0.00097706    -0.00115123     0.00010845
    108      4      H           0.00104783    -0.00041942    -0.00005579
    109      4      H          -0.00089778     0.00253551     0.00115090
    110      4      H          -0.00024770     0.00089379    -0.00233821
    111      4      H           0.00194052    -0.00025516     0.00148567
    112      4      H           0.00000058     0.00003246    -0.00043648
    113      4      H           0.00093750     0.00100602    -0.00020434
    114      4      H           0.00062164    -0.00097680    -0.00084615
    115      4      H          -0.00061853     0.00115032    -0.00118568
    116      4      H           0.00028521     0.00100548    -0.00139363
    117      4      H           0.00051034    -0.00122157     0.00069829
    118      4      H           0.00083225    -0.00206577    -0.00062939
    119      4      H          -0.00231585    -0.00170824    -0.00044417
    120      4      H          -0.00106433     0.00179907    -0.00236815
    121      4      H          -0.00028811    -0.00010118    -0.00053029
    122      4      H          -0.00009392     0.00059719    -0.00033587
    123      4      H          -0.00118904    -0.00097784     0.00037724
    124      4      H           0.00103180    -0.00043109     0.00023208
    125      4      H          -0.00090490     0.00255274     0.00123683
    126      4      H          -0.00024280     0.00101043    -0.00226066
    127      4      H          -0.00001061    -0.00008776     0.00068632
    128      4      H           0.00020803    -0.00029259    -0.00027595
    129      4      H           0.00028493     0.00005828     0.00034966
    130      4      H          -0.00000471     0.00059106    -0.00005210
    131      4      H          -0.00004318    -0.00047792    -0.00000081
    132      4      H          -0.00062352    -0.00053621    -0.00095702
    133      4      H          -0.00000321    -0.00010741     0.00078981
    134      4      H           0.00027242    -0.00026167    -0.00026033
    135      4      H           0.00024724     0.00001965     0.00044998
    136      4      H           0.00003741     0.00046794    -0.00025137
    137      4      H          -0.00017382    -0.00037723     0.00008470
    138      4      H          -0.00063162    -0.00051171    -0.00096765
 SUM OF ATOMIC FORCES          -0.00698225    -0.03069036     0.00173668     0.03152247

 STRESS| Analytical stress tensor [GPa]
 STRESS|                        x                   y                   z
 STRESS|      x        2.48150716279E-01  -7.18218771132E-03  -4.58543505345E-02
 STRESS|      y       -7.18218771132E-03   3.86253739153E-01   2.80468219897E-02
 STRESS|      z       -4.58543505345E-02   2.80468219897E-02   9.08974189699E-01
 STRESS| 1/3 Trace                                             5.14459548377E-01
 STRESS| Determinant                                           8.60886346629E-02

 STRESS| Eigenvectors and eigenvalues of the analytical stress tensor [GPa]
 STRESS|                        1                   2                   3
 STRESS| Eigenvalues   2.44788828620E-01   3.84911532112E-01   9.13678284399E-01
 STRESS|      x           0.997038608058     -0.033514829548     -0.069215390218
 STRESS|      y           0.037284869034      0.997849224292      0.053914414774
 STRESS|      z           0.067259591017     -0.056335439820      0.996143797670

 OPT| **************************************************************************
 OPT| Step number                                                              1
 OPT| Optimization method                                                   BFGS
 OPT| Total energy [hartree]                                    -1761.2495169807
 OPT| Effective energy change [hartree]                            -0.0057842832
 OPT| Predicted energy change [hartree]                            -0.0066650728
 OPT| Scaling factor                                                0.0000000000
 OPT| Step size                                                     0.0669747684
 OPT| Trust radius                                                  0.3779452266
 OPT| Decrease in energy                                                     YES
 OPT| Used time [s]                                                       35.521
 OPT|
 OPT| Maximum step size                                             0.0669747684
 OPT| Convergence limit for maximum step size                       0.0030000000
 OPT| Maximum step size is converged                                          NO
 OPT|
 OPT| RMS step size                                                 0.0154546916
 OPT| Convergence limit for RMS step size                           0.0015000000
 OPT| RMS step size is converged                                              NO
 OPT|
 OPT| Maximum gradient                                              0.0043611480
 OPT| Convergence limit for maximum gradient                        0.0004500000
 OPT| Maximum gradient is converged                                           NO
 OPT|
 OPT| RMS gradient                                                  0.0011801111
 OPT| Convergence limit for RMS gradient                            0.0003000000
 OPT| RMS gradient is converged                                               NO
 OPT| **************************************************************************
 OPT| Estimated peak process memory after this step [MiB]                    511

 --------------------------
 OPTIMIZATION STEP:      2
 --------------------------

 Number of electrons:                                                        656
 Number of occupied orbitals:                                                328
 Number of molecular orbitals:                                               328

 Number of orbital functions:                                               1460
 Number of independent orbital functions:                                   1460

 Extrapolation method: ASPC


 SCF WAVEFUNCTION OPTIMIZATION

  ----------------------------------- OT ---------------------------------------
  Minimizer      : DIIS                : direct inversion
                                         in the iterative subspace
                                         using   7 DIIS vectors
                                         safer DIIS on
  Preconditioner : FULL_KINETIC        : inversion of T + eS
  Precond_solver : DEFAULT
  stepsize       :    0.15000000                  energy_gap     :    0.20000000
  eps_taylor     :   0.10000E-15                  max_taylor     :             4
  ----------------------------------- OT ---------------------------------------

  Step     Update method      Time    Convergence         Total energy    Change
  ------------------------------------------------------------------------------
     1 OT DIIS     0.15E+00    1.0     0.00021973     -1761.2450842257 -1.76E+03
     2 OT DIIS     0.15E+00    1.6     0.00014143     -1761.2478766222 -2.79E-03
     3 OT DIIS     0.15E+00    1.6     0.00007544     -1761.2499629402 -2.09E-03
     4 OT DIIS     0.15E+00    1.6     0.00004015     -1761.2508528012 -8.90E-04
     5 OT DIIS     0.15E+00    1.7     0.00002540     -1761.2511306369 -2.78E-04
     6 OT DIIS     0.15E+00    1.6     0.00001677     -1761.2512481381 -1.18E-04
     7 OT DIIS     0.15E+00    1.7     0.00001049     -1761.2513032547 -5.51E-05
     8 OT DIIS     0.15E+00    1.6     0.00000664     -1761.2513239916 -2.07E-05
     9 OT DIIS     0.15E+00    1.6     0.00000460     -1761.2513310057 -7.01E-06
    10 OT DIIS     0.15E+00    1.8     0.00000301     -1761.2513347272 -3.72E-06
    11 OT DIIS     0.15E+00    1.7     0.00000197     -1761.2513364374 -1.71E-06
    12 OT DIIS     0.15E+00    1.6     0.00000136     -1761.2513371302 -6.93E-07
    13 OT DIIS     0.15E+00    1.7     0.00000093     -1761.2513374756 -3.45E-07
    14 OT DIIS     0.15E+00    1.7     0.00000058     -1761.2513376526 -1.77E-07
    15 OT DIIS     0.15E+00    1.7     0.00000040     -1761.2513377123 -5.97E-08
    16 OT DIIS     0.15E+00    1.6     0.00000028     -1761.2513377403 -2.80E-08
    17 OT DIIS     0.15E+00    1.7     0.00000020     -1761.2513377535 -1.32E-08
    18 OT DIIS     0.15E+00    1.6     0.00000014     -1761.2513377597 -6.17E-09
    19 OT DIIS     0.15E+00    1.7     0.00000010     -1761.2513377632 -3.48E-09
    20 OT DIIS     0.15E+00    1.7     0.00000008     -1761.2513377648 -1.61E-09

  *** SCF run converged in    20 steps ***


  Electronic density on regular grids:       -655.9999999994        0.0000000006
  Core density on regular grids:              655.9999999997       -0.0000000003
  Total charge density on r-space grids:        0.0000000003
  Total charge density g-space grids:           0.0000000003

  Overlap energy of the core charge distribution:               0.00000060840028
  Self energy of the core charge distribution:              -4144.80997841715816
  Core Hamiltonian energy:                                   1117.69207618837481
  Hartree energy:                                            1613.40366911218007
  Exchange-correlation energy:                               -347.03735199232563
  Dispersion energy:                                           -0.49975326426697

  Total energy:                                             -1761.25133776479561

  outer SCF iter =    1 RMS gradient =   0.76E-07 energy =      -1761.2513377648
  outer SCF loop converged in   1 iterations or   20 steps


 ENERGY| Total FORCE_EVAL ( QS ) energy [a.u.]:            -1761.251337765686912

 ATOMIC FORCES in [a.u.]

 # Atom   Kind   Element          X              Y              Z
      1      1      Ca          0.00017585    -0.00016005     0.00039655
      2      1      Ca          0.00006811    -0.00043025     0.00019624
      3      1      Ca         -0.00015014    -0.00042416     0.00072152
      4      1      Ca         -0.00069299    -0.00053379     0.00135122
      5      2      Si         -0.00001164     0.00015682    -0.00178831
      6      2      Si          0.00026613    -0.00020493     0.00009352
      7      2      Si         -0.00004868     0.00006140     0.00086707
      8      3      O          -0.00121557    -0.00095411     0.00036773
      9      3      O           0.00018393     0.00017959     0.00064631
     10      3      O           0.00023997     0.00009600     0.00012380
     11      3      O          -0.00050723    -0.00016943    -0.00068633
     12      3      O           0.00094037    -0.00117472    -0.00023504
     13      3      O          -0.00035971     0.00127244     0.00228115
     14      3      O          -0.00049694     0.00019536    -0.00004713
     15      3      O           0.00053691    -0.00132781     0.00113416
     16      3      O           0.00039380     0.00014049     0.00026644
     17      3      O          -0.00053598    -0.00173533    -0.00005735
     18      3      O           0.00009098     0.00012906    -0.00051397
     19      3      O          -0.00012120    -0.00000921    -0.00008566
     20      3      O          -0.00178268     0.00006879    -0.00031800
     21      3      O          -0.00197007    -0.00054866     0.00002932
     22      3      O          -0.00052652    -0.00109466    -0.00004811
     23      3      O           0.00004065     0.00135611     0.00027527
     24      1      Ca         -0.00001302    -0.00067800     0.00003127
     25      1      Ca         -0.00080899    -0.00042836    -0.00026788
     26      1      Ca          0.00011933    -0.00035361     0.00001869
     27      1      Ca         -0.00063736    -0.00066472    -0.00045478
     28      2      Si          0.00041487     0.00024921     0.00072726
     29      2      Si          0.00058473    -0.00034525     0.00000679
     30      2      Si          0.00095787    -0.00007691     0.00015734
     31      3      O           0.00176898     0.00003904     0.00018001
     32      3      O          -0.00049941     0.00086796    -0.00010073
     33      3      O           0.00026850     0.00073218    -0.00021152
     34      3      O           0.00017862    -0.00061506     0.00026373
     35      3      O           0.00038973    -0.00065677    -0.00049796
     36      3      O          -0.00106376    -0.00056921    -0.00013336
     37      3      O          -0.00133900    -0.00007638     0.00038206
     38      3      O          -0.00064713    -0.00024472     0.00049219
     39      3      O          -0.00024119    -0.00071606    -0.00021987
     40      3      O          -0.00041962    -0.00007246     0.00026329
     41      3      O           0.00038512    -0.00011017    -0.00003090
     42      3      O          -0.00001036     0.00000809     0.00105015
     43      3      O           0.00025377    -0.00095031     0.00078866
     44      3      O           0.00039481     0.00049739    -0.00021574
     45      3      O           0.00059597    -0.00012519     0.00024666
     46      3      O          -0.00027222    -0.00013591    -0.00038493
     47      1      Ca         -0.00008564    -0.00025205    -0.00054331
     48      1      Ca          0.00020361    -0.00018456     0.00041427
     49      1      Ca          0.00001655    -0.00039685     0.00021639
     50      1      Ca         -0.00020256    -0.00038816     0.00073237
     51      1      Ca         -0.00062635    -0.00059346     0.00113487
     52      2      Si         -0.00014649     0.00034438    -0.00168993
     53      2      Si          0.00016085    -0.00029840     0.00015229
     54      2      Si          0.00003523     0.00011449     0.00075335
     55      3      O          -0.00130043    -0.00093531     0.00040165
     56      3      O           0.00017177     0.00025120     0.00048973
     57      3      O           0.00011758     0.00010692     0.00021037
     58      3      O          -0.00042543    -0.00016419    -0.00050412
     59      3      O           0.00095318    -0.00108959    -0.00023066
     60      3      O          -0.00041225     0.00112684     0.00229436
     61      3      O          -0.00052773     0.00021018    -0.00010845
     62      3      O           0.00050899    -0.00132837     0.00105431
     63      3      O           0.00043629     0.00018580     0.00031105
     64      3      O          -0.00054696    -0.00158259     0.00005219
     65      3      O           0.00013470     0.00016920    -0.00062508
     66      3      O          -0.00009918    -0.00004257     0.00003138
     67      3      O          -0.00249336    -0.00045624     0.00112967
     68      3      O          -0.00099116    -0.00054450     0.00036239
     69      3      O          -0.00059799    -0.00128441     0.00004898
     70      3      O          -0.00022275     0.00038351    -0.00025244
     71      1      Ca         -0.00003334    -0.00073119     0.00004915
     72      1      Ca         -0.00073043    -0.00045935    -0.00014591
     73      1      Ca          0.00009869    -0.00046208     0.00000097
     74      1      Ca         -0.00065629    -0.00052238    -0.00048231
     75      2      Si          0.00030567    -0.00008759     0.00080466
     76      2      Si          0.00062286    -0.00027167    -0.00010260
     77      2      Si          0.00091003     0.00013261    -0.00007237
     78      3      O           0.00179751    -0.00023223     0.00013649
     79      3      O           0.00016353     0.00074998    -0.00026746
     80      3      O           0.00025752     0.00081109     0.00001906
     81      3      O           0.00007198    -0.00066010     0.00028586
     82      3      O           0.00086887    -0.00054782    -0.00059914
     83      3      O          -0.00102011    -0.00063619    -0.00003082
     84      3      O          -0.00115612    -0.00014551     0.00038022
     85      3      O          -0.00085441    -0.00009651     0.00025579
     86      3      O           0.00003245    -0.00065636    -0.00042086
     87      3      O          -0.00038079    -0.00008405     0.00019997
     88      3      O           0.00040695    -0.00022918     0.00002986
     89      3      O          -0.00009990    -0.00000056     0.00121954
     90      3      O           0.00030495    -0.00051245     0.00081373
     91      3      O           0.00035218     0.00056830    -0.00018480
     92      3      O           0.00080714     0.00003045     0.00030449
     93      3      O          -0.00032646    -0.00011306    -0.00049692
     94      1      Ca         -0.00008292    -0.00027581    -0.00048680
     95      4      H           0.00104060    -0.00066827     0.00230686
     96      4      H          -0.00019388    -0.00069420     0.00156617
     97      4      H           0.00110544     0.00111876    -0.00068415
     98      4      H           0.00059516    -0.00031169    -0.00068551
     99      4      H          -0.00012629     0.00074384    -0.00121170
    100      4      H           0.00012370     0.00007405    -0.00087822
    101      4      H           0.00006002    -0.00087633    -0.00059695
    102      4      H          -0.00016575    -0.00090670    -0.00129739
    103      4      H          -0.00055964     0.00114237    -0.00146319
    104      4      H          -0.00009059     0.00022556    -0.00052349
    105      4      H          -0.00031315    -0.00015335    -0.00014481
    106      4      H           0.00004519    -0.00021880     0.00019816
    107      4      H          -0.00054331    -0.00002379     0.00001667
    108      4      H           0.00021386     0.00034070     0.00021069
    109      4      H           0.00021521     0.00026105     0.00112023
    110      4      H          -0.00021549     0.00061366     0.00057600
    111      4      H           0.00134663    -0.00059106     0.00222198
    112      4      H           0.00011489    -0.00036355     0.00085850
    113      4      H           0.00082909     0.00067097     0.00004052
    114      4      H           0.00037438    -0.00022315    -0.00020098
    115      4      H          -0.00008437     0.00070110    -0.00129330
    116      4      H           0.00009734     0.00002620    -0.00098394
    117      4      H          -0.00005599    -0.00037368    -0.00021141
    118      4      H           0.00005400    -0.00073011    -0.00057246
    119      4      H          -0.00082919     0.00127901    -0.00143204
    120      4      H          -0.00007687     0.00047057    -0.00046921
    121      4      H          -0.00031287    -0.00018359    -0.00015908
    122      4      H           0.00011593    -0.00032695     0.00020599
    123      4      H          -0.00070954     0.00002003     0.00021164
    124      4      H           0.00023151     0.00026022     0.00041675
    125      4      H           0.00022287     0.00024781     0.00116399
    126      4      H          -0.00021004     0.00061512     0.00060363
    127      4      H           0.00010669    -0.00044006     0.00081843
    128      4      H           0.00020235    -0.00014414    -0.00016020
    129      4      H           0.00010999     0.00010342     0.00057049
    130      4      H          -0.00017047     0.00054375    -0.00014777
    131      4      H          -0.00032567    -0.00030254    -0.00023866
    132      4      H          -0.00033959    -0.00036353    -0.00059510
    133      4      H           0.00010845    -0.00047596     0.00090967
    134      4      H           0.00024858    -0.00012499    -0.00017456
    135      4      H           0.00010549     0.00005348     0.00066930
    136      4      H          -0.00006401     0.00034865    -0.00035478
    137      4      H          -0.00043590    -0.00017370    -0.00013445
    138      4      H          -0.00037215    -0.00037516    -0.00060862
 SUM OF ATOMIC FORCES          -0.00792973    -0.01980169     0.01357001     0.02528108

 STRESS| Analytical stress tensor [GPa]
 STRESS|                        x                   y                   z
 STRESS|      x        2.76581534906E-01  -1.37390851288E-02  -2.80287637618E-02
 STRESS|      y       -1.37390851288E-02   4.23837696541E-01   4.19691179277E-02
 STRESS|      z       -2.80287637618E-02   4.19691179277E-02   9.23029639186E-01
 STRESS| 1/3 Trace                                             5.41149623544E-01
 STRESS| Determinant                                           1.07240723694E-01

 STRESS| Eigenvectors and eigenvalues of the analytical stress tensor [GPa]
 STRESS|                        1                   2                   3
 STRESS| Eigenvalues   2.74401040511E-01   4.21215742966E-01   9.27832087155E-01
 STRESS|      x           0.996000672890     -0.077407730576     -0.044617293172
 STRESS|      y           0.080955019581      0.993162439308      0.084110962136
 STRESS|      z           0.037801381027     -0.087386568727      0.995457002185

 OPT| **************************************************************************
 OPT| Step number                                                              2
 OPT| Optimization method                                                   BFGS
 OPT| Total energy [hartree]                                    -1761.2513377657
 OPT| Effective energy change [hartree]                            -0.0018207850
 OPT| Predicted energy change [hartree]                            -0.0014806694
 OPT| Scaling factor                                                0.0000000000
 OPT| Step size                                                     0.0316515748
 OPT| Trust radius                                                  0.3779452266
 OPT| Decrease in energy                                                     YES
 OPT| Used time [s]                                                       37.682
 OPT|
 OPT| Maximum step size                                             0.0316515748
 OPT| Convergence limit for maximum step size                       0.0030000000
 OPT| Maximum step size is converged                                          NO
 OPT|
 OPT| RMS step size                                                 0.0077721419
 OPT| Convergence limit for RMS step size                           0.0015000000
 OPT| RMS step size is converged                                              NO
 OPT|
 OPT| Maximum gradient                                              0.0024933649
 OPT| Convergence limit for maximum gradient                        0.0004500000
 OPT| Maximum gradient is converged                                           NO
 OPT|
 OPT| RMS gradient                                                  0.0006444094
 OPT| Convergence limit for RMS gradient                            0.0003000000
 OPT| RMS gradient is converged                                               NO
 OPT| **************************************************************************
 OPT| Estimated peak process memory after this step [MiB]                    511

 --------------------------
 OPTIMIZATION STEP:      3
 --------------------------

 Number of electrons:                                                        656
 Number of occupied orbitals:                                                328
 Number of molecular orbitals:                                               328

 Number of orbital functions:                                               1460
 Number of independent orbital functions:                                   1460

 Extrapolation method: ASPC


 SCF WAVEFUNCTION OPTIMIZATION

  ----------------------------------- OT ---------------------------------------
  Minimizer      : DIIS                : direct inversion
                                         in the iterative subspace
                                         using   7 DIIS vectors
                                         safer DIIS on
  Preconditioner : FULL_KINETIC        : inversion of T + eS
  Precond_solver : DEFAULT
  stepsize       :    0.15000000                  energy_gap     :    0.20000000
  eps_taylor     :   0.10000E-15                  max_taylor     :             4
  ----------------------------------- OT ---------------------------------------

  Step     Update method      Time    Convergence         Total energy    Change
  ------------------------------------------------------------------------------
     1 OT DIIS     0.15E+00    1.1     0.00015293     -1761.2492801462 -1.76E+03
     2 OT DIIS     0.15E+00    1.7     0.00009701     -1761.2506232350 -1.34E-03
     3 OT DIIS     0.15E+00    1.7     0.00005215     -1761.2515840428 -9.61E-04
     4 OT DIIS     0.15E+00    1.6     0.00002700     -1761.2520089284 -4.25E-04
     5 OT DIIS     0.15E+00    2.2     0.00001733     -1761.2521312583 -1.22E-04
     6 OT DIIS     0.15E+00    1.6     0.00001161     -1761.2521847075 -5.34E-05
     7 OT DIIS     0.15E+00    1.7     0.00000730     -1761.2522112746 -2.66E-05
     8 OT DIIS     0.15E+00    1.6     0.00000463     -1761.2522214263 -1.02E-05
     9 OT DIIS     0.15E+00    1.6     0.00000319     -1761.2522248918 -3.47E-06
    10 OT DIIS     0.15E+00    1.7     0.00000207     -1761.2522266970 -1.81E-06
    11 OT DIIS     0.15E+00    1.6     0.00000135     -1761.2522275029 -8.06E-07
    12 OT DIIS     0.15E+00    1.6     0.00000094     -1761.2522278313 -3.28E-07
    13 OT DIIS     0.15E+00    1.6     0.00000064     -1761.2522279941 -1.63E-07
    14 OT DIIS     0.15E+00    1.7     0.00000041     -1761.2522280789 -8.48E-08
    15 OT DIIS     0.15E+00    1.6     0.00000029     -1761.2522281084 -2.94E-08
    16 OT DIIS     0.15E+00    1.7     0.00000020     -1761.2522281229 -1.45E-08
    17 OT DIIS     0.15E+00    1.6     0.00000015     -1761.2522281297 -6.79E-09
    18 OT DIIS     0.15E+00    1.7     0.00000011     -1761.2522281330 -3.28E-09
    19 OT DIIS     0.15E+00    1.7     0.00000008     -1761.2522281349 -1.92E-09

  *** SCF run converged in    19 steps ***


  Electronic density on regular grids:       -655.9999999994        0.0000000006
  Core density on regular grids:              655.9999999997       -0.0000000003
  Total charge density on r-space grids:        0.0000000003
  Total charge density g-space grids:           0.0000000003

  Overlap energy of the core charge distribution:               0.00000061144088
  Self energy of the core charge distribution:              -4144.80997841715816
  Core Hamiltonian energy:                                   1117.72146392690320
  Hartree energy:                                            1613.38114929975450
  Exchange-correlation energy:                               -347.04507218495070
  Dispersion energy:                                           -0.49979137086385

  Total energy:                                             -1761.25222813487449

  outer SCF iter =    1 RMS gradient =   0.77E-07 energy =      -1761.2522281349
  outer SCF loop converged in   1 iterations or   19 steps


 ENERGY| Total FORCE_EVAL ( QS ) energy [a.u.]:            -1761.252228135776477

 ATOMIC FORCES in [a.u.]

 # Atom   Kind   Element          X              Y              Z
      1      1      Ca         -0.00024859    -0.00015385    -0.00065270
      2      1      Ca          0.00019450     0.00008740     0.00004003
      3      1      Ca         -0.00027006    -0.00081312    -0.00004844
      4      1      Ca         -0.00020456    -0.00058848     0.00044960
      5      2      Si         -0.00028304     0.00070290    -0.00043785
      6      2      Si          0.00033649    -0.00020054    -0.00097693
      7      2      Si          0.00063685     0.00027704     0.00029420
      8      3      O           0.00070973    -0.00025226     0.00026351
      9      3      O          -0.00020069     0.00031034    -0.00036560
     10      3      O           0.00040170     0.00013227     0.00013441
     11      3      O          -0.00003962    -0.00014635    -0.00036156
     12      3      O          -0.00092243     0.00127012     0.00009172
     13      3      O          -0.00133999     0.00083688     0.00132551
     14      3      O          -0.00023512     0.00077954     0.00033453
     15      3      O          -0.00028797    -0.00114276     0.00046397
     16      3      O           0.00032529     0.00041832    -0.00017794
     17      3      O          -0.00075357    -0.00027208    -0.00034925
     18      3      O           0.00016894     0.00032275     0.00003583
     19      3      O          -0.00013999    -0.00002597     0.00082188
     20      3      O           0.00017275     0.00064557    -0.00451559
     21      3      O          -0.00045811    -0.00041245     0.00004134
     22      3      O          -0.00081557    -0.00068807     0.00017518
     23      3      O           0.00037039    -0.00051330     0.00059279
     24      1      Ca          0.00000592     0.00036952     0.00027852
     25      1      Ca         -0.00053439    -0.00046925     0.00018401
     26      1      Ca          0.00019154    -0.00103296     0.00030844
     27      1      Ca          0.00000093    -0.00005193    -0.00002520
     28      2      Si         -0.00054433    -0.00056527     0.00091776
     29      2      Si         -0.00071113    -0.00028528     0.00026413
     30      2      Si         -0.00007208    -0.00063115     0.00093321
     31      3      O          -0.00064243     0.00059449     0.00035283
     32      3      O          -0.00064669    -0.00053063     0.00022095
     33      3      O           0.00023619    -0.00013349     0.00054373
     34      3      O           0.00011114     0.00022773     0.00027107
     35      3      O           0.00145918    -0.00009793    -0.00002304
     36      3      O           0.00087675     0.00105328    -0.00001707
     37      3      O           0.00076984     0.00112997     0.00020096
     38      3      O           0.00074813    -0.00010684     0.00064743
     39      3      O          -0.00052726     0.00046559     0.00080157
     40      3      O          -0.00045995     0.00029765     0.00009840
     41      3      O          -0.00014822    -0.00040835     0.00010689
     42      3      O          -0.00034997    -0.00071359     0.00083024
     43      3      O          -0.00018682    -0.00109416     0.00092622
     44      3      O          -0.00028549     0.00071938    -0.00026568
     45      3      O          -0.00012414    -0.00092467    -0.00013229
     46      3      O          -0.00030190     0.00082031    -0.00113563
     47      1      Ca          0.00034559     0.00013825    -0.00067344
     48      1      Ca         -0.00024419    -0.00018346    -0.00060218
     49      1      Ca          0.00024680     0.00009037     0.00003566
     50      1      Ca         -0.00031233    -0.00078490    -0.00005524
     51      1      Ca         -0.00022494    -0.00059526     0.00054226
     52      2      Si         -0.00040406     0.00076914    -0.00029956
     53      2      Si          0.00030385    -0.00028487    -0.00084266
     54      2      Si          0.00048809     0.00034006     0.00016857
     55      3      O           0.00060687    -0.00023815     0.00036163
     56      3      O          -0.00020406     0.00032286    -0.00053461
     57      3      O           0.00032289     0.00005645     0.00016950
     58      3      O           0.00002022    -0.00013004    -0.00023535
     59      3      O          -0.00100224     0.00131348     0.00018701
     60      3      O          -0.00125786     0.00067699     0.00141304
     61      3      O          -0.00026559     0.00096606     0.00043187
     62      3      O          -0.00016248    -0.00104627     0.00040047
     63      3      O           0.00030496     0.00038986    -0.00016402
     64      3      O          -0.00064084    -0.00006743    -0.00031862
     65      3      O           0.00014059     0.00037626     0.00007429
     66      3      O          -0.00016606    -0.00002386     0.00093112
     67      3      O          -0.00019723    -0.00010273    -0.00276423
     68      3      O          -0.00044552    -0.00098202     0.00063181
     69      3      O          -0.00074957    -0.00075505     0.00027717
     70      3      O           0.00062293    -0.00121352     0.00011065
     71      1      Ca         -0.00002171     0.00022846     0.00025378
     72      1      Ca         -0.00018603    -0.00040509     0.00034793
     73      1      Ca          0.00026101    -0.00104750     0.00026901
     74      1      Ca          0.00000736    -0.00002911    -0.00003486
     75      2      Si         -0.00070849    -0.00063579     0.00091830
     76      2      Si         -0.00070644    -0.00014418     0.00027417
     77      2      Si         -0.00007863    -0.00066233     0.00075825
     78      3      O          -0.00073506     0.00055118     0.00028432
     79      3      O           0.00007128     0.00033552     0.00024851
     80      3      O           0.00023152    -0.00009740     0.00047927
     81      3      O           0.00019569     0.00024796     0.00025612
     82      3      O           0.00194679    -0.00025230    -0.00006733
     83      3      O           0.00105699     0.00095635     0.00003406
     84      3      O           0.00083583     0.00108652     0.00017674
     85      3      O           0.00067833     0.00004236     0.00040227
     86      3      O          -0.00042592     0.00035855     0.00068849
     87      3      O          -0.00035799     0.00034817    -0.00002570
     88      3      O          -0.00007387    -0.00049064     0.00011664
     89      3      O          -0.00038663    -0.00063255     0.00083259
     90      3      O          -0.00024046    -0.00064053     0.00111361
     91      3      O          -0.00027040     0.00061007    -0.00025556
     92      3      O          -0.00003401    -0.00086968    -0.00014512
     93      3      O          -0.00033456     0.00084228    -0.00120308
     94      1      Ca          0.00034404     0.00001492    -0.00061281
     95      4      H           0.00071556    -0.00036524     0.00198018
     96      4      H          -0.00074220    -0.00091832     0.00213407
     97      4      H           0.00016565     0.00017724    -0.00031946
     98      4      H          -0.00018616     0.00028579    -0.00014436
     99      4      H           0.00061121     0.00037648    -0.00114642
    100      4      H           0.00024608    -0.00071431    -0.00043219
    101      4      H          -0.00009958     0.00001806    -0.00124522
    102      4      H          -0.00033501     0.00045746    -0.00118458
    103      4      H          -0.00012354     0.00162874    -0.00141536
    104      4      H           0.00033887    -0.00036487    -0.00006263
    105      4      H          -0.00012797     0.00003046     0.00009536
    106      4      H           0.00019016    -0.00093986     0.00056892
    107      4      H           0.00012661     0.00016514    -0.00012213
    108      4      H          -0.00023165     0.00048259     0.00021090
    109      4      H           0.00041402    -0.00064040     0.00070899
    110      4      H          -0.00035272     0.00048809     0.00141978
    111      4      H           0.00046218    -0.00051745     0.00230169
    112      4      H          -0.00032254    -0.00073326     0.00202807
    113      4      H           0.00025069     0.00018107     0.00017724
    114      4      H          -0.00026578     0.00042642     0.00032718
    115      4      H           0.00062078     0.00029344    -0.00117561
    116      4      H           0.00014175    -0.00071582    -0.00051635
    117      4      H          -0.00035512     0.00018991    -0.00072941
    118      4      H          -0.00028089     0.00016837    -0.00073652
[...]
 flops     5 x    32 x     5          45224960000       0.0%    100.0%      0.0%     
 flops     5 x    13 x    32          47367091200       0.0%    100.0%      0.0%     
 flops    13 x     5 x    32          47367091200       0.0%    100.0%      0.0%     
 flops   104 x    32 x    50          48142848000       0.0%    100.0%      0.0%     
 flops   390 x    32 x    50          48597120000       0.0%    100.0%      0.0%     
 flops    64 x    32 x    62          48982261760       0.0%    100.0%      0.0%     
 flops    14 x    32 x     5          51803136000       0.0%    100.0%      0.0%     
 flops     5 x    32 x    14          51803136000       0.0%    100.0%      0.0%     
 flops   313 x    32 x    57          51873064320       0.0%    100.0%      0.0%     
 flops   421 x    32 x    50          52459968000       0.0%    100.0%      0.0%     
 flops    14 x    13 x    32          54256849920       0.0%    100.0%      0.0%     
 flops    13 x    14 x    32          54256849920       0.0%    100.0%      0.0%     
 flops   336 x    32 x    57          55684823040       0.0%    100.0%      0.0%     
 flops    96 x    32 x    57          59104604160       0.0%    100.0%      0.0%     
 flops    64 x    32 x    50          59252736000       0.0%    100.0%      0.0%     
 flops    14 x    32 x    14          59338137600       0.0%    100.0%      0.0%     
 flops   104 x    32 x    57          64029987840       0.0%    100.0%      0.0%     
 flops   390 x    32 x    57          64634169600       0.0%    100.0%      0.0%     
 flops    96 x    32 x    32          66571468800       0.0%    100.0%      0.0%     
 flops   421 x    32 x    57          69771757440       0.0%    100.0%      0.0%     
 flops   104 x    32 x    32          72119091200       0.0%    100.0%      0.0%     
 flops    64 x    32 x    57          78806138880       0.0%    100.0%      0.0%     
 flops    64 x    32 x    32          88761958400       0.0%    100.0%      0.0%     
 flops   313 x    32 x    32         191409766400       0.0%    100.0%      0.0%     
 flops     5 x    32 x    13         203101184000       0.0%    100.0%      0.0%     
 flops    13 x    32 x     5         203101184000       0.0%    100.0%      0.0%     
 flops   336 x    32 x    32         205475020800       0.0%    100.0%      0.0%     
 flops    13 x    13 x    32         215520264960       0.0%    100.0%      0.0%     
 flops    14 x    32 x    13         232643174400       0.0%    100.0%      0.0%     
 flops    13 x    32 x    14         232643174400       0.0%    100.0%      0.0%     
 flops   390 x    32 x    32         238497792000       0.0%    100.0%      0.0%     
 flops   421 x    32 x    32         257455308800       0.0%    100.0%      0.0%     
 flops    13 x    32 x    13         912108953600       0.0%    100.0%      0.0%     
 flops inhomo. stacks                774073853280     100.0%      0.0%      0.0%
 flops total                         5.553705E+12      13.9%     86.1%      0.0%
 flops max/rank                    260.703584E+09      15.0%     85.0%      0.0%
 matmuls inhomo. stacks                   1211760     100.0%      0.0%      0.0%
 matmuls total                          384333675       0.3%     99.7%      0.0%
 number of processed stacks              24901470       4.9%     95.1%      0.0%
 average stack size                                     1.0      16.2       0.0
 marketing flops                     5.858870E+12
 -------------------------------------------------------------------------------
 # multiplications                          11647
 max memory usage/rank             536.465408E+06
 # max total images/rank                       13
 # max 3D layers                                1
 # MPI messages exchanged                23014472
 MPI messages size (bytes):
  total size                         1.583756E+12
  min size                           0.000000E+00
  max size                         381.680000E+03
  average size                      68.815648E+03
 MPI breakdown and total messages size (bytes):
             size <=      128            10980067                        0
       128 < size <=     8192              906645               5973233408
      8192 < size <=    32768             1521560              21216230400
     32768 < size <=   131072             5012500             310647392000
    131072 < size <=  4194304             4593700            1245210640000
   4194304 < size <= 16777216                   0                        0
  16777216 < size                               0                        0
 -------------------------------------------------------------------------------

 *** WARNING in dbcsr_mm.F:301 :: Using a non-square number of MPI ranks ***
 *** might lead to poor performance. Used ranks: 52 Suggested: 49 100    ***

 -------------------------------------------------------------------------------
 -                                                                             -
 -                      DBCSR MESSAGE PASSING PERFORMANCE                      -
 -                                                                             -
 -------------------------------------------------------------------------------
 ROUTINE             CALLS      AVE VOLUME [Bytes]
 MP_Bcast              113                     12.
 MP_Allreduce        62795                      9.
 MP_Alltoall         40138                  23701.
 MP_ISend          1049640                  31757.
 MP_IRecv          1014552                  31545.
 -------------------------------------------------------------------------------

 -------------------------------------------------------------------------------
 -                                                                             -
 -                                DBM STATISTICS                               -
 -                                                                             -
 -------------------------------------------------------------------------------
    M  x    N  x    K                                          COUNT     PERCENT
 -------------------------------------------------------------------------------

 -------------------------------------------------------------------------------
 -                                                                             -
 -                                GRID STATISTICS                              -
 -                                                                             -
 -------------------------------------------------------------------------------
 LP    KERNEL             BACKEND                              COUNT     PERCENT
 3     collocate general  CPU                               68808965      22.38%
 4     collocate general  CPU                               66050195      21.48%
 3     integrate general  CPU                               65330776      21.25%
 4     integrate general  CPU                               62477159      20.32%
 2     collocate general  CPU                               18734210       6.09%
 2     integrate general  CPU                               17720716       5.76%
 6     integrate general  CPU                                3615833       1.18%
 7     integrate general  CPU                                3470941       1.13%
 5     integrate general  CPU                                 984522       0.32%
 0     collocate general  CPU                                 251160       0.08%
 -------------------------------------------------------------------------------

 MEMORY| Estimated peak process memory [MiB]                                 512

 -------------------------------------------------------------------------------
 -                                                                             -
 -                         MESSAGE PASSING PERFORMANCE                         -
 -                                                                             -
 -------------------------------------------------------------------------------

 ROUTINE             CALLS      AVE VOLUME [Bytes]
 MP_Group                4
 MP_Bcast             4617                 165512.
 MP_Allreduce        15815                    373.
 MP_Sync                85
 MP_Alltoall         15357                2639588.
 MP_SendRecv        105927                  59474.
 MP_ISendRecv        98838                  63072.
 MP_Wait            191454
 MP_comm_split          47
 MP_ISend            84444                 237201.
 MP_IRecv            84444                 237200.
 -------------------------------------------------------------------------------


 -------------------------------------------------------------------------------
 -                                                                             -
 -                           R E F E R E N C E S                               -
 -                                                                             -
 -------------------------------------------------------------------------------
 
 CP2K version 2024.3, the CP2K developers group (2024).
 CP2K is freely available from https://www.cp2k.org/ .
 
 T. D. Kuehne, M. Iannuzzi, M. Del Ben, V. V. Rybkin, P. Seewald, F. Stein, T. 
 Laino, R. Z. Khaliullin, O. Schuett, F. Schiffmann, D. Golze, J. Wilhelm, S. 
 Chulkov, M. H. Bani-Hashemian, V. Weber, U. Borstnik, M. Taillefumier, A. S. 
 Jakobovits, A. Lazzaro, H. Pabst, T. Mueller, R. Schade, M. Guidon, S. 
 Andermatt, N. Holmberg, G. K. Schenter, A. Hehn, A. Bussy, F. Belleflamme, G. 
 Tabacchi, A. Gloess, M. Lass, I. Bethune, C. J. Mundy, C. Plessl, M. Watkins, 
 J. VandeVondele, M. Krack, J. Hutter.
 J. Chem. Phys. 152, 194103 (2020).
 CP2K: An electronic structure and molecular dynamics software package - 
 Quickstep: Efficient and accurate electronic structure calculations.
 https://doi.org/10.1063/5.0007045

 L. Goerigk, A. Hansen, C. Bauer, S. Ehrlich, A. Najibi, S. Grimme.
 Phys. Chem. Chem. Phys. 19, 32184-32215 (2017).
 A look at the density functional theory zoo with the advanced GMTKN55 database 
 for general main group thermochemistry, kinetics and noncovalent interactions.
 https://doi.org/10.1039/C7CP04913G

 O. Schuett, P. Messmer, J. Hutter, J. VandeVondele.
 Electronic Structure Calculations on Graphics Processing Units, 173-190 (2016).
 GPU-Accelerated Sparse Matrix-Matrix Multiplication for Linear Scaling Density 
 Functional Theory.
 https://doi.org/10.1002/9781118670712.ch8

 A. Heinecke, G. Henry, M. Hutchinson, H. Pabst.
 Proceedings of Intl. Supercomputing Conference, 981-991 (2016).
 LIBXSMM: Accelerating Small Matrix Multiplications by Runtime Code Generation.
 https://doi.org/10.1109/SC.2016.83

 J. Hutter, M. Iannuzzi, F. Schiffmann, J. VandeVondele.
 WIREs Comput Mol Sci. 4, 15-25 (2014).
 CP2K: atomistic simulations of condensed matter systems.
 https://doi.org/10.1002/wcms.1159

 U. Borstnik, J. VandeVondele, V. Weber, J. Hutter.
 Parallel Comput. 40, 47-58 (2014).
 Sparse matrix multiplication: The distributed block-compressed sparse row 
 library.
 https://doi.org/10.1016/j.parco.2014.03.012

 A. Marek, V. Blum, R. Johanni, V. Havu, B. Lang, T. Auckenthaler, A. Heinecke, 
 H. Bungartz, H. Lederer.
 J. Phys. Condens. Matter 26, 213201 (2014).
 The ELPA library: scalable parallel eigenvalue solutions for electronic 
 structure theory and computational science.
 https://doi.org/10.1088/0953-8984/26/21/213201

 S. Grimme, S. Ehrlich, L. Goerigk.
 J. Comput. Chem. 32, 1456 (2011).
 Effect of the damping function in dispersion corrected density functional 
 theory.
 https://doi.org/10.1002/jcc.21759

 S. Grimme, J. Antony, S. Ehrlich, H. Krieg.
 J. Chem. Phys. 132, 154104 (2010).
 A consistent and accurate ab initio parametrization of density functional 
 dispersion correction (DFT-D) for the 94 elements H-Pu.
 https://doi.org/10.1063/1.3382344

 J. P. Perdew, A. Ruzsinszky, G. I. Csonka, O. A. Vydrov, G. E. Scuseria, L. A. 
 Constantin, X. Zhou, K. Burke.
 Phys. Rev. Lett. 100, 136406-136409 (2008).
 Restoring the Density-Gradient Expansion for Exchange in Solids and Surfaces.
 https://doi.org/10.1103/PhysRevLett.100.136406

 J. VandeVondele, J. Hutter.
 J. Chem. Phys. 127, 114105 (2007).
 Gaussian basis sets for accurate calculations on molecular systems in gas and 
 condensed phases.
 https://doi.org/10.1063/1.2770708

 T. D. Kühne, M. Krack, F. R. Mohamed, M. Parrinello.
 Phys. Rev. Lett. 98, 066401 (2007).
 Efficient and accurate Car-Parrinello-like approach to Born-Oppenheimer 
 molecular dynamics.
 https://doi.org/10.1103/PhysRevLett.98.066401

 J. VandeVondele, M. Krack, F. Mohamed, M. Parrinello, T. Chassaing, J. Hutter.
 Comput. Phys. Commun. 167, 103-128 (2005).
 QUICKSTEP: Fast and accurate density functional calculations using a mixed 
 Gaussian and plane waves approach.
 https://doi.org/10.1016/j.cpc.2004.12.014

 M. Krack.
 Theor. Chem. Acc. 114, 145-152 (2005).
 Pseudopotentials for H to Kr optimized for gradient-corrected 
 exchange-correlation functionals.
 https://doi.org/10.1007/s00214-005-0655-y

 M. Frigo, S. G. Johnson.
 Proc. IEEE 93, 216-231 (2005).
 The design and implementation of FFTW3.
 https://doi.org/10.1109/JPROC.2004.840301

 J. Kolafa.
 J. Comput. Chem. 25, 335-342 (2004).
 Time-reversible always stable predictor-corrector method for molecular dynamics 
 of polarizable molecules.
 https://doi.org/10.1002/jcc.10385

 J. VandeVondele, J. Hutter.
 J. Chem. Phys. 118, 4365-4369 (2003).
 An efficient orbital transformation method for electronic structure 
 calculations.
 https://doi.org/10.1063/1.1543154

 C. Hartwigsen, S. Goedecker, J. Hutter.
 Phys. Rev. B 58, 3641-3662 (1998).
 Relativistic separable dual-space Gaussian pseudopotentials from H to Rn.
 https://doi.org/10.1103/PhysRevB.58.3641

 G. Lippert, J. Hutter, M. Parrinello.
 Mol. Phys. 92, 477-487 (1997).
 A hybrid Gaussian and plane wave density functional scheme.
 https://doi.org/10.1080/002689797170220

 S. Goedecker, M. Teter, J. Hutter.
 Phys. Rev. B 54, 1703-1710 (1996).
 Separable dual-space Gaussian pseudopotentials.
 https://doi.org/10.1103/PhysRevB.54.1703

 J. P. Perdew, K. Burke, M. Ernzerhof.
 Phys. Rev. Lett. 77, 3865-3868 (1996).
 Generalized gradient approximation made simple.
 https://doi.org/10.1103/PhysRevLett.77.3865


 -------------------------------------------------------------------------------
 -                                                                             -
 -                                T I M I N G                                  -
 -                                                                             -
 -------------------------------------------------------------------------------
 SUBROUTINE                       CALLS  ASD         SELF TIME        TOTAL TIME
                                MAXIMUM       AVERAGE  MAXIMUM  AVERAGE  MAXIMUM
 CP2K                                 1  1.0    0.012    0.014 1205.804 1205.806
 cp_geo_opt                           1  2.0    0.000    0.000 1205.461 1205.463
 geoopt_bfgs                          1  3.0    0.013    0.017 1205.461 1205.463
 cp_eval_at                          35  4.0    0.006    0.021 1204.396 1204.410
 qs_forces                           34  5.0    0.008    0.008 1186.659 1186.661
 qs_energies                         35  6.0    0.003    0.004 1104.788 1104.802
 scf_env_do_scf                      35  7.0    0.002    0.004 1061.077 1061.080
 scf_env_do_scf_inner_loop          612  8.0    0.015    0.074 1024.251 1024.422
 rebuild_ks_matrix                  646  9.8    0.003    0.003  648.908  649.577
 qs_ks_build_kohn_sham_matrix       646 10.8    0.120    0.129  648.905  649.574
 qs_ks_update_qs_env                649  9.0    0.005    0.007  583.622  584.022
 sum_up_and_integrate               646 11.8    0.017    0.027  502.852  503.077
 integrate_v_rspace                 646 12.8    0.031    0.043  502.361  502.725
 qs_rho_update_rho_low              647  9.0    0.003    0.005  449.972  450.317
 calculate_rho_elec                 647 10.0    0.337    0.407  449.968  450.314
 grid_integrate_task_list           646 13.8  382.458  394.407  382.458  394.407
 grid_collocate_task_list           647 11.0  372.501  386.929  372.501  386.929
 fft_wrap_pw1pw2                  11022 14.2    0.467    0.530  129.739  136.800
 fft_wrap_pw1pw2_250               7143 15.6    6.806    7.108  122.738  128.681
 qs_vxc_create                      646 11.8    0.034    0.042  109.912  112.239
 xc_vxc_pw_create                   646 12.8    2.881    3.462  109.878  112.210
 fft3d_ps                         11022 16.2   52.917   58.823   98.693  107.065
 potential_pw2rs                    646 13.8    0.080    0.094  102.494  102.748
 density_rs2pw                      647 11.0    0.064    0.078   75.555   96.486
 transfer_pw2rs                    2618 14.8    0.047    0.061   90.188   90.306
 xc_pw_derive                      3876 14.8    0.106    0.136   78.972   87.070
 qs_ks_update_qs_env_forces          34  6.0    0.000    0.000   75.359   75.905
 transfer_rs2pw                    2623 12.0    0.049    0.068   49.945   70.069
 mp_waitany                       84444 15.3   43.460   64.828   43.460   64.828
 transfer_rs2pw_250                 682 12.9   10.531   12.968   42.205   62.261
 xc_pw_divergence                   646 13.8    0.054    0.066   53.161   58.338
 mp_waitall_1                   1597826 17.9   47.755   56.343   47.755   56.343
 dbcsr_multiply_generic           11647 13.9    0.631    0.713   54.399   55.332
 mp_alltoall_z22v                 11022 18.2   30.532   55.216   30.532   55.216
 xc_rho_set_and_dset_create         646 13.8    1.435    1.772   51.966   53.107
 transfer_pw2rs_250                 680 15.6   24.742   25.589   49.337   50.373
 qs_scf_new_mos                     612  9.0    0.003    0.005   49.088   49.503
 qs_scf_loop_do_ot                  612 10.0    0.004    0.005   49.085   49.499
 ot_scf_mini                        612 11.0    0.018    0.020   45.892   46.300
 transfer_pw2rs_90                  646 15.8    5.481    5.789   38.685   40.082
 mp_alltoall_d11v                  8947 15.1   17.924   37.648   17.924   37.648
 rs_gather_matrices                 646 13.8    0.121    0.196   17.326   37.123
 yz_to_x                           3913 17.4    5.538    6.802   22.306   36.679
 init_scf_loop                       37  8.0    0.001    0.001   36.620   36.623
 ot_mini                            612 12.0    0.004    0.005   30.779   31.182
 multiply_cannon                  11647 14.9    1.337    1.438   29.179   31.086
 init_scf_run                        35  7.0    0.001    0.002   28.291   28.295
 scf_env_initial_rho_setup           35  8.0    0.000    0.001   28.290   28.294
 wfi_extrapolate                     35  9.0    0.004    0.004   27.515   27.515
 x_to_yz                           4523 17.4    8.026    9.405   21.392   26.178
 multiply_cannon_loop             11647 15.9    1.668    2.264   23.895   25.620
 mp_sum_d                         14085 14.0   18.341   25.396   18.341   25.396
 qs_ot_get_derivative               612 13.0    0.006    0.006   24.433   24.845
 -------------------------------------------------------------------------------

 The number of warnings for this run is : 1
 
 -------------------------------------------------------------------------------
  **** **** ******  **  PROGRAM ENDED AT                 2025-01-16 07:29:44.181
 ***** ** ***  *** **   PROGRAM RAN ON                               ubuntu-GPU2
 **    ****   ******    PROGRAM RAN BY                                       zkm
 ***** **    ** ** **   PROGRAM PROCESS ID                               3480832
  **** **  *******  **  PROGRAM STOPPED IN /home/zkm/CP2K/Generate_dataset/Jenni
                                           te/Elastic/elastic_cp2k/example/epsil
                                           onzz/neg
