     138
 i =        1, E =     -1761.2495169807
 Ca        -0.7416424408        1.3846276887        3.6757778022
 Ca         2.5196177483        4.5782066093        3.2855627713
 Ca        -1.8733807069        4.8524286297        3.9459547234
 Ca         3.4518065980        0.9419985385        3.5162659887
 Si         5.9538885828        5.8085607361        2.0000195708
 Si         6.7187048368        0.6535805226        3.7949114952
 Si         5.5328135077        3.4860501590        3.9353568594
  O         9.8950118053       -0.7068621800        2.5924471489
  O         0.3372569470        5.5476655072        3.5431628761
  O         5.5092788107       -0.2931247907        4.3314758783
  O         7.8598601434        0.8490850625        4.9370486249
  O         7.4107267058        0.1842208853        2.3791732767
  O         5.2498303520        4.4512066716        2.6250631722
  O         6.0433549727        2.0634885850        3.2900772228
  O         5.9866147139        5.6733875193        0.3941528861
  O         4.0234409653        3.1784257232        4.4543872058
  O         6.6247411645        4.0968783399        4.9643046323
  O         1.4676476696        2.3161236048        3.3094858696
  O        -1.3887961034        3.1898669097        2.3942852797
  O         4.0220217800        0.8295830078        1.2296332622
  O         4.4928792034       -0.9697603285        9.3002147900
  O         8.2947026860       -1.7200940443        9.4383943875
  O         6.1329964695        0.9912079289        9.3895964881
 Ca         7.6881829327        2.6023280225        6.5798224203
 Ca         4.4473075876       -0.6044060674        6.9415815758
 Ca         8.7696787122       -0.8313557704        6.4199266946
 Ca         3.4829064554        2.9802600618        6.6177100667
 Si         1.0408244474       -1.8127479082        8.2944024373
 Si         0.2909331403        3.4133671163        6.3969897931
 Si         1.4037595527        0.5136965557        6.3502335427
  O        -2.8760553024        4.6450266738        7.6786300068
  O         6.5748530964       -1.5598943876        6.6272617945
  O         1.5017210859        4.3162565412        5.7947690616
  O        -0.9290926073        3.1430864917        5.3763579948
  O        -0.2650171442        3.9838387718        7.8310031785
  O         1.5645329251       -0.3387610414        7.7552089425
  O         1.0167658721        2.0223178602        6.9256378605
  O         1.0146326507       -1.7908531207        9.9033906840
  O         2.9152409686        0.6915453901        5.7857349385
  O         0.2601985795       -0.0831694847        5.3762276444
  O         5.4947504898        1.6280170174        6.9090841875
  O        -1.7242778503        1.0073780716        7.8800686073
  O         3.4745114365        3.8000674891        8.8045566909
  O         2.5538065930        5.2106093911        1.0483796471
  O        -1.3434432238        5.5661677217        0.6978498857
  O         0.9735335211        3.0615501989        0.7126847275
 Ca         9.2734976295        3.3387791751        0.0570890462
 Ca        -3.2134510119        8.2548840797        3.6766889347
 Ca         0.0483693806       11.4494292623        3.2876769035
 Ca        -4.3443419282       11.7223794945        3.9458194182
 Ca         0.9791861913        7.8128304664        3.5099164242
 Si         3.4834647539       12.6778768879        1.9988054407
 Si         4.2466667736        7.5228375387        3.7964859210
 Si         3.0609969227       10.3558720752        3.9349707961
  O         7.4230546288        6.1631633375        2.5936054254
  O        -2.1343595162       12.4169353069        3.5451323063
  O         3.0363793156        6.5762570237        4.3327216876
  O         5.3872861881        7.7183337063        4.9389898727
  O         4.9390462815        7.0537127904        2.3811094417
  O         2.7792480755       11.3209393562        2.6245751424
  O         3.5713751097        8.9325150813        3.2911521145
  O         3.5170295953       12.5418983116        0.3927449615
  O         1.5520523419       10.0474523197        4.4540993158
  O         4.1527266650       10.9646749775        4.9651934714
  O        -1.0035880071        9.1857635656        3.3080023149
  O        -3.8597486546       10.0600475082        2.3941940843
  O         1.5534863012        7.7011972303        1.2198680992
  O         1.9953838753        5.8804607368        9.2547328460
  O         5.8224470447        5.1478025252        9.4388797106
  O         3.6529248380        7.8402902166        9.4086999949
 Ca         5.2184126776        9.4724390963        6.5807310667
 Ca         1.9904586840        6.2711438886        6.9065241406
 Ca         6.3027370851        6.0379125833        6.4217914535
 Ca         1.0116675542        9.8522548405        6.6186269526
 Si        -1.4295885101        5.0565675726        8.2936279356
 Si        -2.1798878331       10.2829313038        6.3970893656
 Si        -1.0675082153        7.3830303645        6.3503285262
  O        -5.3473065085       11.5158429194        7.6777055975
  O         4.1128385233        5.2968173165        6.6236002768
  O        -0.9686901521       11.1882331217        5.7987773272
  O        -3.3999674919       10.0130867545        5.3764252302
  O        -2.7330410747       10.8566755815        7.8319158662
  O        -0.9090037893        6.5308766045        7.7543753102
  O        -1.4540483282        8.8924083411        6.9254777748
  O        -1.4558370611        5.0778008405        9.9032394248
  O         0.4413743371        7.5647525492        5.7802178713
  O        -2.2112187274        6.7868167957        5.3757894332
  O         3.0261706939        8.5009210159        6.9117043566
  O        -4.1967653243        7.8774291389        7.8815356457
  O         1.0033075447       10.6745585061        8.8069540087
  O         0.0823208206       12.0798106978        1.0490669817
  O        -3.8149549401       12.4344024483        0.6945840083
  O        -1.4976693094        9.9301954138        0.7117603355
 Ca         6.8011450301       10.2036414610        0.0590184410
  H         3.1651992026        0.8663792001        0.6149567225
  H         4.6643654426        1.3589963397        0.6669685359
  H         5.1661492572       -0.2351223061        9.5279507461
  H         5.0077185340       -1.8439417544        9.2847030790
  H         8.1123647485       -2.5840289568        9.9644985287
  H         9.0965060758       -1.9777477652        8.8708733024
  H         5.6699244510        1.8230466615        9.8888984825
  H         6.0029826223        1.2241181099        8.4162410252
  H         3.8969714071        3.2832920011        9.6179282813
  H         4.2325678317        4.4410776009        8.6847562390
  H         1.9458936662        4.5284909340        0.6459011860
  H         2.1158187383        6.1135735068        0.9716488279
  H        -2.0497664248        5.8405274581        1.3534639228
  H        -1.0191997815        6.4525374593        0.3237174345
  H         1.0540677507        2.8055334025        1.6779219028
  H         1.4140919984        2.1989915395        0.2910823386
  H         0.6924027146        7.7366429303        0.6079087870
  H         2.1917101491        8.2246869900        0.6511589127
  H         2.6666554601        6.6136516958        9.4955727120
  H         2.5139991299        5.0073715875        9.2418088709
  H         5.6374782923        4.2850983073        9.9668745367
  H         6.6245852672        4.8890575322        8.8726668484
  H         3.1889897177        8.6741624899        9.9008599738
  H         3.5330277170        8.0759200345        8.4348482780
  H         1.4332699531       10.1539189165        9.6154224395
  H         1.7613886931       11.3135797927        8.6795301982
  H        -0.5253492901       11.3980390253        0.6459884973
  H        -0.3570048327       12.9823714474        0.9753865322
  H        -4.5211461785       12.7084511500        1.3494996879
  H        -3.4911473881       13.3205640282        0.3191813319
  H        -1.4162289670        9.6747149676        1.6769120177
  H        -1.0572333473        9.0674651537        0.2900468380
  H         0.5625219871        5.3498940104        4.4854758114
  H         1.3449845501        2.7057552786        4.2047969250
  H        -0.5350872230        3.6812506366        2.3931869660
  H         6.3962874198       -1.3326812146        5.6801252866
  H         5.6955338440        1.2384292733        6.0269513662
  H        -0.8063237521        1.3546200475        7.9345306134
  H        -1.9077121619       12.2218501966        4.4876986620
  H        -1.1254184451        9.5726045642        4.2045180730
  H        -3.0061709240       10.5517983266        2.3913516189
  H         3.9411512181        5.5200597081        5.6749974757
  H         3.2300661122        8.1250482393        6.0243174895
  H        -3.2787936243        8.2241556014        7.9392791628
     138
 i =        2, E =     -1761.2513377657
 Ca        -0.7418030767        1.3824081358        3.6819806723
 Ca         2.5225563870        4.5773552233        3.2841974473
 Ca        -1.8742158946        4.8536619909        3.9504248963
 Ca         3.4512042384        0.9405463986        3.5197020871
 Si         5.9550612304        5.8056403394        2.0031345302
 Si         6.7179769385        0.6506389985        3.7952898818
 Si         5.5289897564        3.4805992612        3.9379541473
  O         9.8925565495       -0.7059185592        2.5962926889
  O         0.3357507758        5.5426453268        3.5487833461
  O         5.5033176867       -0.2926330102        4.3269181130
  O         7.8613973608        0.8510728775        4.9337909819
  O         7.4123880845        0.1808373010        2.3797591057
  O         5.2463929203        4.4560300377        2.6352011410
  O         6.0433821846        2.0607525228        3.2875320908
  O         5.9876111898        5.6713824704        0.3986830317
  O         4.0203963317        3.1698838489        4.4577365438
  O         6.6246345064        4.0895937351        4.9640888181
  O         1.4671201053        2.3141297491        3.3064650826
  O        -1.3873476878        3.1890628698        2.3939631089
  O         4.0191860402        0.8282713111        1.2463825542
  O         4.4957362713       -0.9692904069        9.2985439660
  O         8.2949096137       -1.7220455880        9.4300016459
  O         6.1294897842        0.9909050370        9.3830777685
 Ca         7.6884419686        2.5912210819        6.5800926619
 Ca         4.4496697116       -0.6051728906        6.9403717998
 Ca         8.7680731067       -0.8272015121        6.4193413536
 Ca         3.4838763243        2.9800672630        6.6193458670
 Si         1.0400939273       -1.8144325256        8.2924459523
 Si         0.2898569796        3.4085136854        6.3986522095
 Si         1.4001728844        0.5066787664        6.3483709979
  O        -2.8725588346        4.6369612962        7.6721294379
  O         6.5727796042       -1.5535079814        6.6269527326
  O         1.5007204800        4.3086030556        5.7933028762
  O        -0.9257364718        3.1403874112        5.3723487941
  O        -0.2640183284        3.9845374164        7.8313789360
  O         1.5669232740       -0.3444324909        7.7525406563
  O         1.0247044919        2.0191752966        6.9181237284
  O         1.0123623332       -1.7922602033        9.9010845423
  O         2.9102077687        0.6906559934        5.7840423763
  O         0.2608529234       -0.0892441022        5.3697004259
  O         5.4914269695        1.6282931317        6.9073285596
  O        -1.7249845978        1.0066093988        7.8772066272
  O         3.4794124710        3.8025483472        8.8035510035
  O         2.5517238639        5.2096774907        1.0517216963
  O        -1.3431076432        5.5690127658        0.7022122039
  O         0.9774784559        3.0596096613        0.7207178254
 Ca         9.2694917659        3.3368682795        0.0630052877
 Ca        -3.2134831372        8.2521432471        3.6826733826
 Ca         0.0507917192       11.4486248191        3.2865538083
 Ca        -4.3450743697       11.7235683419        3.9504937070
 Ca         0.9788459692        7.8115409064        3.5124769081
 Si         3.4841195209       12.6752917514        2.0015697127
 Si         4.2465884093        7.5200248132        3.7964561824
 Si         3.0571321214       10.3502209902        3.9374518810
  O         7.4214143149        6.1638080603        2.5969308056
  O        -2.1360161464       12.4119842794        3.5513062956
  O         3.0314145614        6.5763743213        4.3276170944
  O         5.3885226574        7.7198075040        4.9365678261
  O         4.9409747948        7.0502143219        2.3810334406
  O         2.7760229704       11.3256339824        2.6345077404
  O         3.5719328691        8.9298460773        3.2880479557
  O         3.5172127726       12.5400399476        0.3968967033
  O         1.5490042099       10.0394076548        4.4581091045
  O         4.1526525497       10.9573567789        4.9647020410
  O        -1.0042526895        9.1841061818        3.3043834012
  O        -3.8581738470       10.0587923785        2.3942910339
  O         1.5501774196        7.7000252393        1.2346994394
  O         1.9971274659        5.8807464538        9.2572086114
  O         5.8219672066        5.1452756601        9.4299050064
  O         3.6486961853        7.8404770528        9.4040163390
 Ca         5.2186930218        9.4618292234        6.5813453812
 Ca         1.9926851709        6.2704088092        6.9057634381
 Ca         6.3016746276        6.0421691322        6.4209349043
 Ca         1.0120818216        9.8539047575        6.6205885411
 Si        -1.4305704985        5.0551718934        8.2911147597
 Si        -2.1802949214       10.2784018131        6.3989478260
 Si        -1.0707149692        7.3763751622        6.3479262196
  O        -5.3435186479       11.5079044245        7.6714093988
  O         4.1134780451        5.2996222317        6.6215368665
  O        -0.9695832929       11.1794677384        5.7946306188
  O        -3.3964629168       10.0102203804        5.3733490025
  O        -2.7306753208       10.8583623580        7.8324192853
  O        -0.9053231059        6.5252382780        7.7512075858
  O        -1.4470632819        8.8887798794        6.9185466918
  O        -1.4588559662        5.0765348391        9.9002615325
  O         0.4367254666        7.5640044696        5.7775325499
  O        -2.2106396861        6.7807114478        5.3694003749
  O         3.0220633941        8.5003350172        6.9107792289
  O        -4.1977840880        7.8761379619        7.8792066509
  O         1.0074727469       10.6788162252        8.8055350761
  O         0.0804686597       12.0788918870        1.0521472495
  O        -3.8150996603       12.4369758982        0.6993309282
  O        -1.4938195998        9.9280728917        0.7198152762
 Ca         6.7973878481       10.2020850397        0.0653767228
  H         3.1665843638        0.8653251892        0.6240136002
  H         4.6583076287        1.3538916544        0.6726850207
  H         5.1677865994       -0.2310512348        9.5225940811
  H         5.0093597819       -1.8450495149        9.2780796110
  H         8.1078968766       -2.5831962244        9.9580443188
  H         9.0989549967       -1.9740386040        8.8635547459
  H         5.6696745365        1.8194504837        9.8897767902
  H         6.0039295110        1.2132469028        8.4073179513
  H         3.8915184500        3.2720494557        9.6151477103
  H         4.2291894129        4.4505554035        8.6722808619
  H         1.9454380859        4.5285855484        0.6443990298
  H         2.1166064727        6.1145071553        0.9710349918
  H        -2.0548333317        5.8360664167        1.3546259795
  H        -1.0141346516        6.4522033835        0.3264150581
  H         1.0506057588        2.8153264766        1.6885257444
  H         1.4137339592        2.2018831051        0.2850972038
  H         0.6931253464        7.7357991600        0.6160853565
  H         2.1860144569        8.2198295841        0.6561093435
  H         2.6687708294        6.6156029605        9.4941782662
  H         2.5153458644        5.0062920834        9.2371471628
  H         5.6337662078        4.2854760047        9.9603828794
  H         6.6269579587        4.8923951507        8.8652492892
  H         3.1891382369        8.6723668994        9.9020987928
  H         3.5351229810        8.0676300741        8.4281671548
  H         1.4269143194       10.1439933795        9.6122433470
  H         1.7585237175       11.3234528788        8.6680055105
  H        -0.5257489436       11.3980849466        0.6444872308
  H        -0.3561122416       12.9832509531        0.9745811490
  H        -4.5263632077       12.7045249181        1.3514461629
  H        -3.4859232846       13.3202799324        0.3234361558
  H        -1.4198685698        9.6847702335        1.6877042526
  H        -1.0573585461        9.0705118982        0.2841174790
  H         0.5629987431        5.3489787947        4.4910240521
  H         1.3461059740        2.7037188832        4.2019852190
  H        -0.5341108724        3.6813818491        2.3945339574
  H         6.3960332754       -1.3294951400        5.6788013263
  H         5.6952436931        1.2362776561        6.0270505474
  H        -0.8070059181        1.3530237407        7.9295233902
  H        -1.9071869074       12.2208387486        4.4936895567
  H        -1.1238551584        9.5705959763        4.2013778887
  H        -3.0052550993       10.5517480533        2.3933023858
  H         3.9411794615        5.5225332155        5.6730519725
  H         3.2290909149        8.1232372398        6.0246867210
  H        -3.2798816717        8.2225538557        7.9341811548
     138
 i =        3, E =     -1761.2522281358
 Ca        -0.7405301774        1.3806477145        3.6870678149
 Ca         2.5240633919        4.5747331035        3.2844949529
 Ca        -1.8751557442        4.8512732976        3.9571745230
 Ca         3.4465209951        0.9369686846        3.5288111798
 Si         5.9552630561        5.8021096772        2.0024704349
 Si         6.7171299091        0.6487269074        3.7929325170
 Si         5.5266907633        3.4757377973        3.9428934491
  O         9.8884755366       -0.7105812349        2.6011128035
  O         0.3359514217        5.5402065808        3.5568974627
  O         5.5020448895       -0.2930626010        4.3266325383
  O         7.8608648749        0.8506522391        4.9300740777
  O         7.4145753223        0.1770990654        2.3787866923
  O         5.2397806408        4.4663065071        2.6528077292
  O         6.0410171996        2.0588062830        3.2847946928
  O         5.9886896039        5.6652106397        0.3998933787
  O         4.0183888981        3.1655058624        4.4621817449
  O         6.6255150946        4.0769348979        4.9687864012
  O         1.4673842106        2.3138316566        3.3023333669
  O        -1.3867328043        3.1887892003        2.3927251528
  O         4.0136893657        0.8261482785        1.2613431150
  O         4.4936747112       -0.9690814786        9.2987928727
  O         8.2939043173       -1.7248239917        9.4209945218
  O         6.1307874662        0.9921023608        9.3756891979
 Ca         7.6884283902        2.5820660333        6.5802905153
 Ca         4.4457312122       -0.6070459175        6.9384243107
 Ca         8.7683511392       -0.8278948436        6.4188275285
 Ca         3.4800020815        2.9756724198        6.6180823568
 Si         1.0453919130       -1.8181471084        8.2942508537
 Si         0.2928501067        3.4058514310        6.3972591904
 Si         1.4000710466        0.5031105440        6.3470600466
  O        -2.8640701723        4.6318703285        7.6682915896
  O         6.5682799225       -1.5441179126        6.6264731520
  O         1.5016714926        4.3083149112        5.7911722515
  O        -0.9233742499        3.1347134103        5.3727129566
  O        -0.2611963987        3.9806722100        7.8302056592
  O         1.5626832506       -0.3480539937        7.7508753170
  O         1.0203055767        2.0136706580        6.9179752900
  O         1.0091402451       -1.7928517904        9.9026202130
  O         2.9091715040        0.6852104397        5.7818283615
  O         0.2595576898       -0.0921424976        5.3699185350
  O         5.4916650060        1.6269655095        6.9055831485
  O        -1.7263047457        1.0054100576        7.8796313258
  O         3.4802984117        3.8025158291        8.7998190508
  O         2.5527490647        5.2097269717        1.0505725375
  O        -1.3408623486        5.5696887095        0.7067452942
  O         0.9763466671        3.0601929850        0.7267066163
 Ca         9.2667403603        3.3339462477        0.0660037191
 Ca        -3.2119339722        8.2499263943        3.6878215397
 Ca         0.0517212701       11.4461655737        3.2870884709
 Ca        -4.3462128246       11.7213735802        3.9574950027
 Ca         0.9745590583        7.8077321447        3.5202873694
 Si         3.4838534848       12.6719839314        2.0006856543
 Si         4.2459417851        7.5178427706        3.7942862328
 Si         3.0554316863       10.3453206785        3.9420937937
  O         7.4177369605        6.1590929135        2.6017631190
  O        -2.1358793306       12.4099615840        3.5594374633
  O         3.0299885362        6.5760256451        4.3274772056
  O         5.3876768287        7.7190473562        4.9338489720
  O         4.9436610467        7.0465637891        2.3800678795
  O         2.7694366789       11.3356404476        2.6517568178
  O         3.5697869926        8.9275989423        3.2849906894
  O         3.5173745126       12.5342442918        0.3977433631
  O         1.5476046667       10.0356335170        4.4628838263
  O         4.1531420406       10.9455917160        4.9697253036
  O        -1.0037440205        9.1843263590        3.2994449643
  O        -3.8574841357       10.0581025869        2.3939648608
  O         1.5432505384        7.6982846925        1.2527466479
  O         1.9967844707        5.8800402769        9.2619429775
  O         5.8204856320        5.1414532772        9.4207520826
  O         3.6476310987        7.8394691684        9.3988195976
 Ca         5.2185297015        9.4523893681        6.5818139625
 Ca         1.9896350165        6.2679992121        6.9048417102
 Ca         6.3025289955        6.0411553516        6.4202070532
 Ca         1.0077290944        9.8511395125        6.6193985758
 Si        -1.4261470305        5.0514475520        8.2927209893
 Si        -2.1769743215       10.2756685252        6.3972715692
 Si        -1.0698545840        7.3732941092        6.3457286479
  O        -5.3340176319       11.5014947417        7.6680047911
  O         4.1140819382        5.3062297902        6.6187382938
  O        -0.9684289124       11.1791925377        5.7925953087
  O        -3.3945614939       10.0042352060        5.3742912911
  O        -2.7247940368       10.8567269815        7.8310281861
  O        -0.9092026787        6.5212292285        7.7486993614
  O        -1.4509394284        8.8832797324        6.9184253757
  O        -1.4622003903        5.0764144114        9.9015060971
  O         0.4365390277        7.5592592420        5.7734503778
  O        -2.2115683436        6.7778814782        5.3695539033
  O         3.0221527234        8.4980430931        6.9104714156
  O        -4.1997504046        7.8746537135        7.8828529832
  O         1.0082889911       10.6819808115        8.8019300049
  O         0.0815151657       12.0788151868        1.0511503815
  O        -3.8126920703       12.4379864206        0.7052444300
  O        -1.4952707636        9.9288207601        0.7256658343
 Ca         6.7944089209       10.1992346092        0.0690053560
  H         3.1635674724        0.8608840460        0.6374751992
  H         4.6553810837        1.3479236460        0.6849949777
  H         5.1696027706       -0.2281529560        9.5135034417
  H         5.0115323626       -1.8435743654        9.2705746048
  H         8.1035030850       -2.5839382566        9.9491521967
  H         9.1000119559       -1.9719311799        8.8548153576
  H         5.6685020401        1.8146415797        9.8866104913
  H         6.0031718737        1.2020210616        8.3975020450
  H         3.8906236226        3.2702528520        9.6102497303
  H         4.2255586056        4.4548742666        8.6634525766
  H         1.9444761834        4.5291615210        0.6437523702
  H         2.1166603773        6.1146563805        0.9720655182
  H        -2.0592019589        5.8333583283        1.3539640438
  H        -1.0111296387        6.4524445096        0.3308202115
  H         1.0501576120        2.8224539523        1.6962457584
  H         1.4132138895        2.2052223239        0.2869920836
  H         0.6915130451        7.7319216656        0.6289454735
  H         2.1809849286        8.2125491467        0.6674290390
  H         2.6711537635        6.6165643080        9.4924604585
  H         2.5174260598        5.0060271652        9.2335506780
  H         5.6298994684        4.2836738914        9.9512988626
  H         6.6275775571        4.8940855040        8.8559553936
  H         3.1889469056        8.6687991471        9.9000454696
  H         3.5359841116        8.0592024289        8.4215812749
  H         1.4240745924       10.1435954698        9.6075053923
  H         1.7556534215       11.3299479424        8.6599281555
  H        -0.5266155651       11.3985584718        0.6437852613
  H        -0.3558152755       12.9831536305        0.9754900924
  H        -4.5311784149       12.7021679006        1.3518421703
  H        -3.4824296273       13.3207718574        0.3297359475
  H        -1.4204454054        9.6920849103        1.6953613942
  H        -1.0578272520        9.0741617143        0.2861702027
  H         0.5638103720        5.3457016746        4.4985447658
  H         1.3480581214        2.7015212935        4.1989116332
  H        -0.5336628653        3.6817433362        2.3989141661
  H         6.3946979344       -1.3242390151        5.6768236873
  H         5.6928573042        1.2333192672        6.0256142960
  H        -0.8080084425        1.3504567302        7.9231683616
  H        -1.9065111721       12.2174242795        4.5012815889
  H        -1.1213304291        9.5684528525        4.1978086163
  H        -3.0047736135       10.5517197862        2.3986659244
  H         3.9407648283        5.5260515237        5.6697309863
  H         3.2256997092        8.1211211048        6.0237080635
  H        -3.2814339668        8.2198563792        7.9276853775
     138
 i =        4, E =     -1761.2528095985
 Ca        -0.7413464580        1.3782554061        3.6870142626
 Ca         2.5264898093        4.5742635684        3.2842564622
 Ca        -1.8774813613        4.8463555514        3.9614154134
 Ca         3.4434506323        0.9320363972        3.5350965520
 Si         5.9540904001        5.8036753088        2.0025924732
 Si         6.7167321642        0.6482833157        3.7900576286
 Si         5.5253097108        3.4747130886        3.9454473035
  O         9.8865181652       -0.7149476759        2.6045738683
  O         0.3351895881        5.5391510158        3.5627214316
  O         5.5020820911       -0.2928042176        4.3262378030
  O         7.8612623906        0.8498946672        4.9261015889
  O         7.4137053910        0.1794489228        2.3748487882
  O         5.2298532567        4.4804706440        2.6687481159
  O         6.0394740989        2.0592094741        3.2840353450
  O         5.9876970713        5.6581153695        0.4016209731
  O         4.0175839334        3.1641795918        4.4646351625
  O         6.6251297294        4.0701746192        4.9717341123
  O         1.4686121044        2.3147971883        3.2994051552
  O        -1.3868948971        3.1882838848        2.3953874284
  O         4.0129124713        0.8205766378        1.2621449579
  O         4.4911280409       -0.9690823921        9.2995412360
  O         8.2912317720       -1.7281905800        9.4132707202
  O         6.1322537139        0.9912680845        9.3693970303
 Ca         7.6888735414        2.5780211890        6.5826907864
 Ca         4.4407761846       -0.6105013847        6.9387944244
 Ca         8.7683460727       -0.8326005134        6.4204612339
 Ca         3.4785827394        2.9736385263        6.6173650195
 Si         1.0489043460       -1.8213052692        8.2978480553
 Si         0.2925364690        3.4034984449        6.3981382381
 Si         1.3968043691        0.4996581545        6.3506328889
  O        -2.8603832000        4.6313253964        7.6680348221
  O         6.5623270269       -1.5416829027        6.6257772922
  O         1.5023526960        4.3053770512        5.7932988958
  O        -0.9223733309        3.1327452233        5.3722035536
  O        -0.2554071890        3.9821640778        7.8316979643
  O         1.5644357463       -0.3514028325        7.7532179237
  O         1.0256786728        2.0141335799        6.9168366991
  O         1.0074708521       -1.7925754946        9.9061333309
  O         2.9048487138        0.6853436395        5.7855198708
  O         0.2575041652       -0.0923288283        5.3698125396
  O         5.4904830687        1.6237987337        6.9037332187
  O        -1.7275904807        1.0015280640        7.8838586341
  O         3.4795418455        3.8017375663        8.7973680335
  O         2.5531722851        5.2096856217        1.0502536207