     138
 i =        1, E =     -1761.2506705112
 Ca        -0.7412239922        1.3808041548        3.6825045296
 Ca         2.5217230595        4.5764147463        3.2856959007
 Ca        -1.8753672969        4.8547221496        3.9509753524
 Ca         3.4528847691        0.9428525925        3.5212528632
 Si         5.9552800211        5.8098849260        1.9715336085
 Si         6.7201097411        0.6530343656        3.7971023859
 Si         5.5312288816        3.4953019172        3.9320736685
  O         9.8869841601       -0.7181370195        2.5972729097
  O         0.3402895382        5.5374458596        3.5356180167
  O         5.5013582201       -0.2897313924        4.3186928098
  O         7.8626220888        0.8583869084        4.9354044865
  O         7.4163108864        0.1792413331        2.3849770859
  O         5.2498390764        4.4631407155        2.6221275879
  O         6.0362988188        2.0634132795        3.3031717458
  O         5.9868924170        5.7078836151        0.3623115758
  O         4.0209909057        3.1850726513        4.4482628880
  O         6.6258532485        4.1054998086        4.9585066372
  O         1.4688430954        2.3017184737        3.3161312731
  O        -1.3869400357        3.1800325877        2.3920317239
  O         4.0199353157        0.8224328582        1.2088966165
  O         4.4795238617       -0.9764086639        9.3219325812
  O         8.2903639456       -1.7465145646        9.4476740348
  O         6.1355869610        0.9922923960        9.3904653882
 Ca         7.6934282737        2.5937236576        6.5906271905
 Ca         4.4448884883       -0.6006751701        6.9475566784
 Ca         8.7708905913       -0.8191160392        6.4233080164
 Ca         3.4822691252        2.9785875177        6.6146385688
 Si         1.0423439746       -1.8142402563        8.3186012982
 Si         0.2850402089        3.4175807103        6.3966850260
 Si         1.4043879072        0.5140333298        6.3568081302
  O        -2.8746220717        4.6488008562        7.6923175930
  O         6.5709583284       -1.5692675948        6.6280918285
  O         1.4929659497        4.3209522838        5.7882244885
  O        -0.9330986906        3.1601616130        5.3693585689
  O        -0.2614827210        3.9918131494        7.8336979673
  O         1.5609666026       -0.3420355099        7.7620298970
  O         1.0186306841        2.0285609772        6.9208274699
  O         1.0165006634       -1.8174126764        9.9290827508
  O         2.9125971995        0.7025773877        5.7842580738
  O         0.2674911597       -0.0712360293        5.3677797304
  O         5.4814862025        1.6336713950        6.9062052335
  O        -1.7305936524        1.0024166335        7.9072591045
  O         3.4955720208        3.7946994471        8.8266781887
  O         2.5511347513        5.2067701605        1.0579682182
  O        -1.3303490164        5.5857500241        0.7065673360
  O         0.9633058366        3.0524239892        0.7205304246
 Ca         9.2700124331        3.3786613754        0.0207289834
 Ca        -3.2130041881        8.2510878309        3.6834432039
 Ca         0.0505026835       11.4474472794        3.2878092843
 Ca        -4.3462378638       11.7246395535        3.9509235843
 Ca         0.9800293522        7.8136662738        3.5158518656
 Si         3.4848633996       12.6791078622        1.9705070140
 Si         4.2473488834        7.5222125491        3.7989693242
 Si         3.0594799392       10.3651087398        3.9319677746
  O         7.4149674988        6.1525470040        2.5981869439
  O        -2.1310514599       12.4067549915        3.5370533169
  O         3.0276087232        6.5800559900        4.3208774468
  O         5.3898352070        7.7281209130        4.9369204195
  O         4.9433700453        7.0475238567        2.3874711406
  O         2.7793966661       11.3327558215        2.6218361905
  O         3.5641591158        8.9325072277        3.3041426084
  O         3.5176412832       12.5758723306        0.3610260089
  O         1.5496409138       10.0538602279        4.4480745993
  O         4.1535683606       10.9743767187        4.9594700416
  O        -1.0023657256        9.1711374721        3.3150675547
  O        -3.8579149689       10.0503612616        2.3922154795
  O         1.5508903260        7.6924814003        1.2018762658
  O         1.9883061914        5.8741730712        9.2692801101
  O         5.8175857550        5.1209356293        9.4478570222
  O         3.6537939367        7.8425962977        9.4019982615
 Ca         5.2237891016        9.4638627651        6.5913541039
 Ca         1.9878730418        6.2743612657        6.9110435551
 Ca         6.3042593078        6.0502361153        6.4251445298
 Ca         1.0112609380        9.8498055455        6.6152787641
 Si        -1.4284043506        5.0548578691        8.3182137903
 Si        -2.1854187034       10.2875159695        6.3964983164
 Si        -1.0678464009        7.3833788077        6.3569907854
  O        -5.3455826963       11.5193412642        7.6914254906
  O         4.1100667776        5.2940199126        6.6260699527
  O        -0.9795519175       11.1969804873        5.7922222266
  O        -3.4037428017       10.0301176526        5.3694332826
  O        -2.7301082633       10.8637658367        7.8344012765
  O        -0.9160635927        6.5284565296        7.7619262759
  O        -1.4521991402        8.8989047792        6.9206334946
  O        -1.4535498006        5.0514067489        9.9293450720
  O         0.4381398146        7.5753613648        5.7802745154
  O        -2.2044920153        6.7985435228        5.3672293404
  O         3.0136316477        8.5065432652        6.9081832398
  O        -4.2035287335        7.8725194263        7.9086584423
  O         1.0245640241       10.6693059584        8.8285069141
  O         0.0797209483       12.0759052545        1.0584304552
  O        -3.8017100682       12.4541722088        0.7037342460
  O        -1.5076761507        9.9209490807        0.7198668226
 Ca         6.7968578090       10.2435316075        0.0225108391
  H         3.1744917773        0.8807029997        0.5932487683
  H         4.6590518279        1.3674117458        0.6641869573
  H         5.1576256744       -0.2355931990        9.5255602247
  H         5.0046933546       -1.8421715559        9.2851091912
  H         8.1205049346       -2.5947041473        9.9879810348
  H         9.0970038537       -1.9809742754        8.8715580643
  H         5.6659377949        1.8127616914        9.9173622920
  H         6.0122605916        1.2175174356        8.4146996775
  H         3.8821448098        3.2652031085        9.6384519500
  H         4.2359511032        4.4491190478        8.6794862329
  H         1.9461250327        4.5270841588        0.6460165906
  H         2.1177443798        6.1093631136        0.9704867955
  H        -2.0524344787        5.8436301322        1.3537168117
  H        -1.0225257965        6.4561305298        0.3040999077
  H         1.0522065617        2.8098837026        1.6876586910
  H         1.4204615506        2.2030653513        0.2639615609
  H         0.7023467199        7.7509091897        0.5869774034
  H         2.1858806130        8.2320271195        0.6491404310
  H         2.6603525735        6.6147659567        9.4942159712
  H         2.5127075010        5.0069695072        9.2422155896
  H         5.6457334948        4.2742737311        9.9904709855
  H         6.6250238693        4.8857155662        8.8734443295
  H         3.1854153903        8.6636882340        9.9283136931
  H         3.5417486938        8.0708082811        8.4271193617
  H         1.4183488445       10.1359886257        9.6357447566
  H         6.7071932660       -2.4172612927        8.6742717810
  H        -0.5251726347       11.3965259488        0.6461212370
  H        -0.3550203248       12.9781962072        0.9741829567
  H        -4.5239235957       12.7115507267        1.3498079919
  H        -3.4945262395       13.3240401290        0.2993879073
  H        -1.4180394204        9.6789820745        1.6868867010
  H        -1.0508318179        9.0714783111        0.2628765743
  H         0.5616886867        5.3508522233        4.4820119312
  H         1.3451955536        2.7051452428        4.2053624303
  H        -0.5365163312        3.6782282164        2.3929083089
  H         6.3966964230       -1.3333634246        5.6819083741
  H         5.6951066018        1.2399255892        6.0282303286
  H        -0.8129222805        1.3517471658        7.9398829551
  H        -1.9086486094       12.2228921711        4.4837976328
  H        -1.1252434374        9.5720971759        4.2053564107
  H        -3.0075528692       10.5487774358        2.3910552266
  H         3.9415649283        5.5193555437        5.6769357472
  H         3.2297440866        8.1263139792        6.0252172911
  H        -3.2856382053        8.2211755438        7.9445982049
     138
 i =        2, E =     -1761.2521074672
 Ca        -0.7410548260        1.3776573341        3.6796771305
 Ca         2.5208976520        4.5740233566        3.2851084002
 Ca        -1.8758035090        4.8522098968        3.9512806968
 Ca         3.4521679663        0.9372723759        3.5218018770
 Si         5.9545717399        5.8153600427        1.9726867435
 Si         6.7169840397        0.6549429146        3.7964610359
 Si         5.5269389069        3.4997210370        3.9308758302
  O         9.8890751116       -0.7257561406        2.5974632506
  O         0.3389851356        5.5298599712        3.5341796492
  O         5.5008368556       -0.2930187694        4.3166940088
  O         7.8583505123        0.8620616536        4.9365047231
  O         7.4135783970        0.1837481492        2.3837350286
  O         5.2456942225        4.4703863002        2.6218957841
  O         6.0320306479        2.0667038789        3.3042789725
  O         5.9897094630        5.7248518017        0.3630826843
  O         4.0180954448        3.1822355631        4.4480709642
  O         6.6211371855        4.1071078160        4.9596474282
  O         1.4687197207        2.2888602887        3.3177273588
  O        -1.3900667362        3.1776558402        2.3932526242
  O         4.0161223816        0.8333354854        1.2075160217
  O         4.4771093441       -0.9781847520        9.3197500024
  O         8.2858270621       -1.7610101673        9.4457975657
  O         6.1338260076        0.9803975242        9.3893445812
 Ca         7.6878325639        2.5908654356        6.5909643181
 Ca         4.4432183267       -0.6030982890        6.9513896712
 Ca         8.7720939996       -0.8219456853        6.4203371826
 Ca         3.4806144479        2.9806311926        6.6142168050
 Si         1.0425423589       -1.8199836449        8.3178961382
 Si         0.2835537297        3.4196444262        6.3957130149
 Si         1.4037900500        0.5136385040        6.3568335603
  O        -2.8745545183        4.6384882220        7.6915473710
  O         6.5674642413       -1.5663054743        6.6290017109
  O         1.4919141784        4.3201730392        5.7847264804
  O        -0.9389323149        3.1625651590        5.3724487198
  O        -0.2541243565        3.9916702262        7.8370412715
  O         1.5538524726       -0.3451114929        7.7611208014
  O         1.0094415839        2.0264879770        6.9188741718
  O         1.0087295375       -1.8382238037        9.9284334483
  O         2.9134015556        0.7039565223        5.7881907087
  O         0.2738107073       -0.0727727267        5.3622276810
  O         5.4855779979        1.6330170730        6.9068833390
  O        -1.7341072976        1.0046753510        7.9054087360
  O         3.4913706734        3.7909088402        8.8200897873
  O         2.5517702275        5.2015354473        1.0559024257
  O        -1.3314544182        5.5908650757        0.7050566740
  O         0.9695616363        3.0644355917        0.7246243190
 Ca         9.2698616229        3.3889236517        0.0196537731
 Ca        -3.2130383184        8.2475448350        3.6805379039
 Ca         0.0490415033       11.4451096230        3.2873685759
 Ca        -4.3460042939       11.7220506929        3.9517528893
 Ca         0.9792889443        7.8084345581        3.5170114460
 Si         3.4837355288       12.6852853897        1.9712808169
 Si         4.2441963258        7.5238796986        3.7980617543
 Si         3.0548416098       10.3694087523        3.9309473890
  O         7.4176071484        6.1447451014        2.5977872640
  O        -2.1321256578       12.3993614584        3.5353594121
  O         3.0262542854        6.5777343408        4.3191755033
  O         5.3849770339        7.7322765003        4.9380912660
  O         4.9407613368        7.0510652219        2.3862500007
  O         2.7756404417       11.3402857083        2.6218006081
  O         3.5602354532        8.9358353351        3.3051969831
  O         3.5198834846       12.5898375373        0.3615376922
  O         1.5464291417       10.0502624843        4.4481827370
  O         4.1485267382       10.9767447704        4.9602689377
  O        -1.0025999859        9.1579251647        3.3171048921
  O        -3.8608194152       10.0469590516        2.3933686147
  O         1.5452745653        7.7054625503        1.2036172451
  O         1.9818205616        5.8705352606        9.2750798809
  O         5.8119944243        5.1062360802        9.4460073058
  O         3.6545957809        7.8296273479        9.3981501721
 Ca         5.2181914620        9.4615708048        6.5923155355
 Ca         1.9871088030        6.2720131808        6.9151972138
 Ca         6.3058989223        6.0484061328        6.4218372085
 Ca         1.0087993625        9.8533474350        6.6154151023
 Si        -1.4283211215        5.0496703749        8.3169051154
 Si        -2.1868439702       10.2915247858        6.3954463717
 Si        -1.0701584624        7.3840449442        6.3571264350
  O        -5.3453102502       11.5094563268        7.6907264125
  O         4.1086275832        5.2993220803        6.6269345599
  O        -0.9812772249       11.1979760388        5.7871961557
  O        -3.4094099263       10.0316765679        5.3730625583
  O        -2.7239403049       10.8619805792        7.8383739403
  O        -0.9237598586        6.5266223505        7.7612286996
  O        -1.4621544167        8.8981899783        6.9182544568
  O        -1.4613236965        5.0308244148        9.9281268677
  O         0.4373728785        7.5754740802        5.7844403635
  O        -2.1989879142        6.7970028136        5.3613596389
  O         3.0144209716        8.5037037226        6.9082450225
  O        -4.2080168693        7.8747553989        7.9067598997
  O         1.0205905165       10.6683070166        8.8224167690
  O         0.0804188758       12.0707978138        1.0568070088
  O        -3.8030064350       12.4587324714        0.7027634205
  O        -1.5021410956        9.9327321023        0.7237948791
 Ca         6.7964909008       10.2544477525        0.0214669011
  H         3.1734910305        0.8831756944        0.5890203324
  H         4.6624117067        1.3723357022        0.6653546068
  H         5.1524918481       -0.2345097449        9.5253522483
  H         5.0027291180       -1.8436079642        9.2859175777
  H         8.1214303557       -2.6053356375        9.9887677503
  H         9.0957867362       -1.9885329446        8.8691397409
  H         5.6619689990        1.8054295759        9.9184687719
  H         6.0127180209        1.2110633942        8.4155417078
  H         3.8886678493        3.2688398776        9.6299732194
  H         4.2389758679        4.4400374629        8.6896606658
  H         1.9432318133        4.5228161216        0.6477778009
  H         2.1204663606        6.1074098411        0.9687396751
  H        -2.0518920359        5.8507209961        1.3537804677
  H        -1.0254222200        6.4609640279        0.3040633414
  H         1.0467210601        2.8116403850        1.6895637266
  H         1.4180721274        2.2061768891        0.2630901956
  H         0.7007869732        7.7525129282        0.5841932978
  H         2.1893759589        8.2354784205        0.6522748678
  H         2.6570277648        6.6107156000        9.4951037773
  H         2.5127053166        5.0072176267        9.2445084424
  H         5.6474270876        4.2631392654        9.9910647409
  H         6.6230615169        4.8778977486        8.8710174330
  H         3.1832445728        8.6574472993        9.9238071200
  H         3.5418234453        8.0692273848        8.4272211325
  H         1.4238613215       10.1409317151        9.6273389638
  H         6.7119246065       -2.4253857254        8.6851907105
  H        -0.5279598557       11.3925171193        0.6479016737
  H        -0.3520153949       12.9762121168        0.9718126785
  H        -4.5233586200       12.7194002548        1.3507436066
  H        -3.4973744130       13.3288755895        0.3012690027
  H        -1.4237331868        9.6809721439        1.6888484666
  H        -1.0527914167        9.0748179612        0.2624267369
  H         0.5618734180        5.3474559733        4.4811727636
  H         1.3473289001        2.7013464953        4.2034222823
  H        -0.5377811473        3.6729936345        2.3922236595
  H         6.3945442683       -1.3331713586        5.6819507317
  H         5.6913564139        1.2409600455        6.0266406603
  H        -0.8144973491        1.3483301568        7.9421126156
  H        -1.9084495688       12.2195745796        4.4828726426
  H        -1.1228530431        9.5686008038        4.2036495746
  H        -3.0090736018       10.5433367854        2.3911037007
  H         3.9402875061        5.5196152925        5.6765889249
  H         3.2257319679        8.1271841922        6.0228736958
  H        -3.2881224373        8.2176999574        7.9467712618
     138
 i =        3, E =     -1761.2528332493
 Ca        -0.7421189507        1.3759996566        3.6802319519
 Ca         2.5200471722        4.5727114542        3.2837099262
 Ca        -1.8760353103        4.8492417233        3.9516384326
 Ca         3.4513834975        0.9331763048        3.5218469270
 Si         5.9525384323        5.8193658125        1.9731236231
 Si         6.7150501430        0.6570155961        3.7951060015
 Si         5.5228784723        3.5025147715        3.9286872532
  O         9.8863859014       -0.7255265612        2.6002307816
  O         0.3393981876        5.5329836262        3.5342183948
  O         5.5013599564       -0.2961437457        4.3127788788
  O         7.8545242219        0.8639885506        4.9372672600
  O         7.4161098457        0.1904864025        2.3830020260
  O         5.2384879416        4.4770881620        2.6221344723
  O         6.0294448559        2.0695364205        3.3035970643
  O         5.9956447452        5.7338961757        0.3634585086
  O         4.0149318994        3.1814258062        4.4464400287
  O         6.6150815163        4.1091111072        4.9596036422
  O         1.4671630501        2.2938424955        3.3138429351
  O        -1.3907674694        3.1761325053        2.3911042404
  O         4.0157065111        0.8339500860        1.2072806176
  O         4.4755545220       -0.9786521436        9.3201198661
  O         8.2822390722       -1.7633609659        9.4457401182
  O         6.1306672176        0.9754428069        9.3924246370
 Ca         7.6836764236        2.5898592278        6.5889590127
 Ca         4.4429383455       -0.6050336622        6.9535138944
 Ca         8.7716850475       -0.8237129417        6.4193774334
 Ca         3.4803060765        2.9828986231        6.6135196844
 Si         1.0412645364       -1.8228283852        8.3201705823
 Si         0.2827411795        3.4188500212        6.3957928986
 Si         1.4029388780        0.5125130312        6.3577558667
  O        -2.8750222901        4.6399807151        7.6887661592
  O         6.5664107397       -1.5653036345        6.6278299598
  O         1.4916198708        4.3177344609        5.7840400182
  O        -0.9373221083        3.1604457674        5.3700100681
  O        -0.2504793865        3.9941461326        7.8376465495
  O         1.5488462860       -0.3467078398        7.7625080425
  O         1.0097131929        2.0259731636        6.9177014108
  O         1.0039604475       -1.8404572433        9.9314232724
  O         2.9137119622        0.7034728213        5.7922113061
  O         0.2785403339       -0.0761239357        5.3593456317
  O         5.4855626074        1.6317926247        6.9087452064
  O        -1.7377916552        1.0053649322        7.9066189921
  O         3.4926184564        3.7878088188        8.8197776621
  O         2.5519983952        5.2016683876        1.0566907401
  O        -1.3344597500        5.5929527552        0.7052110258
  O         0.9685071271        3.0728716576        0.7257212119
 Ca         9.2702915096        3.3877631399        0.0181139416
 Ca        -3.2141744858        8.2457340479        3.6809557189
 Ca         0.0484573350       11.4432841307        3.2859143612
 Ca        -4.3470101198       11.7190610911        3.9517315532
 Ca         0.9782456423        7.8043261785        3.5180324899
 Si         3.4818289579       12.6887320154        1.9708533960
 Si         4.2416356122        7.5264642736        3.7971769234
 Si         3.0508475623       10.3723168473        3.9287128473
  O         7.4154437670        6.1437732442        2.6004598232
  O        -2.1318949744       12.4028100406        3.5352096313
  O         3.0258211410        6.5753503001        4.3155301485
  O         5.3808968701        7.7348152258        4.9388347650
  O         4.9425396221        7.0576473280        2.3862744697
  O         2.7676792604       11.3473302012        2.6224232858
  O         3.5580045005        8.9391536613        3.3038518545
  O         3.5268051890       12.5966329263        0.3609589685
  O         1.5435398567       10.0487744681        4.4467461499
  O         4.1422875110       10.9786924408        4.9606593427
  O        -1.0044433677        9.1633337644        3.3133427680
  O        -3.8618164633       10.0456209170        2.3916930702
  O         1.5446220283        7.7035983832        1.2042320920
  O         1.9790864363        5.8671245764        9.2779458965
  O         5.8088075904        5.1048556767        9.4464885705
  O         3.6536018505        7.8205906398        9.3976756118
 Ca         5.2137760641        9.4601791321        6.5902753714
 Ca         1.9859413047        6.2698693324        6.9181084126
 Ca         6.3057895575        6.0470531563        6.4209343085
 Ca         1.0076819395        9.8553655928        6.6146460990
 Si        -1.4292036459        5.0474501033        8.3188758866
 Si        -2.1882675116       10.2907944266        6.3952329484
 Si        -1.0717176265        7.3829844490        6.3581743056
  O        -5.3460664962       11.5100034024        7.6882876656
  O         4.1078186574        5.3014588293        6.6257936719
  O        -0.9829142185       11.1970703668        5.7871025609
  O        -3.4087706615       10.0306469121        5.3704438530
  O        -2.7211088046       10.8638732985        7.8387423737
  O        -0.9279071863        6.5259855467        7.7631734646
  O        -1.4616144394        8.8981033753        6.9166140671
  O        -1.4662347381        5.0284422035        9.9307401060
  O         0.4367766571        7.5745119457        5.7887429326
  O        -2.1955921441        6.7941493658        5.3589399603
  O         3.0146583579        8.5033382851        6.9094915184
  O        -4.2123977643        7.8757240296        7.9077189640
  O         1.0230068653       10.6665882058        8.8219325418
  O         0.0806158019       12.0708884030        1.0573089566
  O        -3.8060578281       12.4606829368        0.7035550864
  O        -1.5031694023        9.9409264544        0.7247893692
 Ca         6.7969463668       10.2534054301        0.0201157548
  H         3.1748621484        0.8842005484        0.5863201217
  H         4.6614617161        1.3752007147        0.6662836198
  H         5.1511760819       -0.2345520992        9.5240842985
  H         5.0009563313       -1.8445853380        9.2861195180
  H         8.1225434875       -2.6112117617        9.9868242183
  H         9.0907422370       -1.9964671931        8.8686742786
  H         5.6602821573        1.8024121948        9.9176750103
  H         6.0121864992        1.2044778070        8.4176891530
  H         3.8891819644        3.2653561692        9.6297582885
  H         4.2422527975        4.4373121878        8.6925967920
  H         1.9419519416        4.5211763461        0.6515279322
  H         2.1214686615        6.1066251264        0.9662433362
  H        -2.0530715536        5.8549501492        1.3559039065
  H        -1.0263622359        6.4648853936        0.3017925120
  H         1.0447557152        2.8124090820        1.6888240726
  H         1.4128764163        2.2121148142        0.2667592823
  H         0.7016606408        7.7536046041        0.5829909908
  H         2.1882260063        8.2376592761        0.6550040393
  H         2.6541036223        6.6079528883        9.4963192906
  H         2.5103365807        5.0040945195        9.2470037013
  H         5.6485758013        4.2576051841        9.9888350526
  H         6.6173569280        4.8701763579        8.8699306843
  H         3.1844762387        8.6516481336        9.9209551267
  H         3.5422867267        8.0637990117        8.4270766993
  H         1.4234644421       10.1384296959        9.6276360380
  H         6.7160707832       -2.4263363703        8.6890841156
  H        -0.5291422632       11.3905541587        0.6516181156
  H        -0.3505254054       12.9758330804        0.9686475982
  H        -4.5247631432       12.7235053868        1.3537201363
  H        -3.4978304049       13.3326569582        0.3001947148
  H        -1.4259896187        9.6817998126        1.6881066516
  H        -1.0577157825        9.0807097808        0.2661113771
  H         0.5615830062        5.3428218314        4.4797543868
  H         1.3491526930        2.6965183907        4.2035709063
  H        -0.5380013448        3.6698708898        2.3930624893
  H         6.3918935928       -1.3317644933        5.6814284550
  H         5.6874522946        1.2417230206        6.0265578840
  H        -0.8167455121        1.3457786007        7.9422972997
  H        -1.9085414393       12.2149891866        4.4812541607
  H        -1.1209724502        9.5637263621        4.2040768651
  H        -3.0092772144       10.5398176607        2.3923237905
  H         3.9385687187        5.5213957332        5.6758198016
  H         3.2213211717        8.1279624901        6.0223598700
  H        -3.2910454400        8.2152767167        7.9469104616
     138
 i =        4, E =     -1761.2535086200
 Ca        -0.7455695783        1.3727351307        3.6817467295
 Ca         2.5163970483        4.5689675908        3.2802423684
 Ca        -1.8776591740        4.8427392959        3.9506703465
 Ca         3.4473751831        0.9243112495        3.5218938466
 Si         5.9479004897        5.8315809511        1.9748442449
 Si         6.7115028089        0.6631356440        3.7894773532
 Si         5.5108415562        3.5100056933        3.9214267596
  O         9.8810378391       -0.7248711624        2.6077691322
  O         0.3372083487        5.5344766477        3.5344513165
  O         5.5049423791       -0.3024016326        4.3030444827
  O         7.8435588527        0.8713098304        4.9389850879
  O         7.4245586682        0.2134686077        2.3773905784
  O         5.2183826903        4.4948820995        2.6207291558
  O         6.0238288698        2.0777383676        3.3015013588
  O         6.0138841341        5.7462201904        0.3655373897
  O         4.0064517552        3.1814643939        4.4436423109
  O         6.6002524643        4.1132154191        4.9558580863
  O         1.4658360214        2.2974666832        3.3082613489
  O        -1.3917316979        3.1732576744        2.3897359804
  O         4.0158360838        0.8336740186        1.2057423556
  O         4.4727958471       -0.9806968304        9.3200161115
  O         8.2779818808       -1.7672401937        9.4462635111
  O         6.1226603235        0.9634906271        9.3994440463
 Ca         7.6740266832        2.5881570754        6.5834075914
 Ca         4.4391771842       -0.6097979589        6.9570920524
 Ca         8.7702741521       -0.8273264870        6.4180635504
 Ca         3.4787330906        2.9859911754        6.6115200707
 Si         1.0366653206       -1.8237065856        8.3253440117
 Si         0.2827714828        3.4156272637        6.3970601655
 Si         1.4051732569        0.5094367403        6.3603369469
  O        -2.8753972712        4.6368769094        7.6858009502
  O         6.5643579604       -1.5632737184        6.6240152909
  O         1.4925055326        4.3114112070        5.7831973011
  O        -0.9365311017        3.1590248277        5.3702399941
  O        -0.2521290707        3.9973939860        7.8361929291
  O         1.5421849799       -0.3455688872        7.7689157120
  O         1.0092811851        2.0222235347        6.9177053473
  O         0.9954333767       -1.8375470324        9.9386176414
  O         2.9168886445        0.7020554351        5.7972282698
  O         0.2865617630       -0.0785468820        5.3575850755
  O         5.4846554242        1.6301293010        6.9138698383
  O        -1.7490844471        1.0070337082        7.9062746258
  O         3.4979013764        3.7793087408        8.8210004432
  O         2.5540630648        5.2035987354        1.0557930848