 DBCSR| CPU Multiplication driver                                           XSMM (U)
 DBCSR| Multrec recursion limit                                              512 (U)
 DBCSR| Multiplication stack size                                           1000 (D)
 DBCSR| Maximum elements for images                                    UNLIMITED (U)
 DBCSR| Multiplicative factor virtual images                                   1 (U)
 DBCSR| Use multiplication densification                                       T (D)
 DBCSR| Multiplication size stacks                                             3 (U)
 DBCSR| Use memory pool for CPU allocation                                     F (U)
 DBCSR| Number of 3D layers                                               SINGLE (U)
 DBCSR| Use MPI memory allocation                                              F (U)
 DBCSR| Use RMA algorithm                                                      F (U)
 DBCSR| Use Communication thread                                               T (U)
 DBCSR| Communication thread load                                             83 (D)
 DBCSR| MPI: My process id                                                     0
 DBCSR| MPI: Number of processes                                              52
 DBCSR| OMP: Current number of threads                                         2
 DBCSR| OMP: Max number of threads                                             2
 DBCSR| Split modifier for TAS multiplication algorithm                  1.0E+00 (U)


  **** **** ******  **  PROGRAM STARTED AT               2025-01-16 07:48:18.643
 ***** ** ***  *** **   PROGRAM STARTED ON                           ubuntu-GPU2
 **    ****   ******    PROGRAM STARTED BY                                   zkm
 ***** **    ** ** **   PROGRAM PROCESS ID                               3481446
  **** **  *******  **  PROGRAM STARTED IN /home/zkm/CP2K/Generate_dataset/Jenni
                                           te/Elastic/elastic_cp2k/example/epsil
                                           onyz/neg

 CP2K| version string:                                       CP2K version 2024.3
 CP2K| source code revision number:                                  git:6712648
 CP2K| cp2kflags: omp libint fftw3 libxc libgrpp pexsi elpa parallel scalapack m
 CP2K|            pi_f08 cosma quip xsmm plumed2 spglib mkl sirius libvori libbq
 CP2K|            qb libvdwxc hdf5
 CP2K| is freely available from                            https://www.cp2k.org/
 CP2K| Program compiled at            2024年 10月 05日 星期六 13:00:57 CST
 CP2K| Program compiled on                                           ubuntu-GPU2
 CP2K| Program compiled for                                                local
 CP2K| Data directory path                       /home/zkm/CP2K/cp2k-2024.3/data
 CP2K| Input file name                                                geoopt.inp

 GLOBAL| Force Environment number                                              1
 GLOBAL| Basis set file name                                        BASIS_MOLOPT
 GLOBAL| Potential file name                                           POTENTIAL
 GLOBAL| MM Potential file name                                     MM_POTENTIAL
 GLOBAL| Coordinate file name                                          coord.xyz
 GLOBAL| Method name                                                        CP2K
 GLOBAL| Project name                                                     geoopt
 GLOBAL| Run type                                                        GEO_OPT
 GLOBAL| FFT library                                                       FFTW3
 GLOBAL| Diagonalization library                                            ELPA
 GLOBAL| DGEMM library                                                      BLAS
 GLOBAL| Minimum number of eigenvectors for ELPA usage                        16
 GLOBAL| Orthonormality check for eigenvectors                          DISABLED
 GLOBAL| Matrix multiplication library                                     COSMA
 GLOBAL| All-to-all communication in single precision                          F
 GLOBAL| FFTs using library dependent lengths                                  F
 GLOBAL| Grid backend                                                       AUTO
 GLOBAL| Global print level                                                  LOW
 GLOBAL| MPI I/O enabled                                                       T
 GLOBAL| Total number of message passing processes                            52
 GLOBAL| Number of threads for this process                                    2
 GLOBAL| This output is from process                                           0
 GLOBAL| Stack size for threads created by OpenMP (OMP_STACKSIZE)        default
 GLOBAL| CPU model name            Intel(R) Xeon(R) Platinum 8179M CPU @ 2.40GHz
 GLOBAL| CPUID                                                              1003

 MEMORY| system memory details [Kb]
 MEMORY|                        rank 0           min           max       average
 MEMORY| MemTotal            527974664     527974664     527974664     527974664
 MEMORY| MemFree             104807232     104807232     104807232     104807232
 MEMORY| Buffers               6978732       6978732       6978732       6978732
 MEMORY| Cached              241518712     241518712     241518712     241518712
 MEMORY| Slab                 39925860      39925860      39925860      39925860
 MEMORY| SReclaimable         37100452      37100452      37100452      37100452
 MEMORY| MemLikelyFree       390405128     390405128     390405128     390405128


 GENERATE|  Preliminary Number of Bonds generated:                             0
 GENERATE|  Achieved consistency in connectivity generation.

 *******************************************************************************
 *******************************************************************************
 **                                                                           **
 **     #####                         ##              ##                      **
 **    ##   ##            ##          ##              ##                      **
 **   ##     ##                       ##            ######                    **
 **   ##     ##  ##   ##  ##   #####  ##  ##   ####   ##    #####    #####    **
 **   ##     ##  ##   ##  ##  ##      ## ##   ##      ##   ##   ##  ##   ##   **
 **   ##  ## ##  ##   ##  ##  ##      ####     ###    ##   ######   ######    **
 **    ##  ###   ##   ##  ##  ##      ## ##      ##   ##   ##       ##        **
 **     #######   #####   ##   #####  ##  ##  ####    ##    #####   ##        **
 **           ##                                                    ##        **
 **                                                                           **
 **                                                ... make the atoms dance   **
 **                                                                           **
 **            Copyright (C) by CP2K developers group (2000-2024)             **
 **                      J. Chem. Phys. 152, 194103 (2020)                    **
 **                                                                           **
 *******************************************************************************


 TOTAL NUMBERS AND MAXIMUM NUMBERS

  Total number of            - Atomic kinds:                                   4
                             - Atoms:                                        138
                             - Shell sets:                                   138
                             - Shells:                                       620
                             - Primitive Cartesian functions:                696
                             - Cartesian basis functions:                   1554
                             - Spherical basis functions:                   1460

  Maximum angular momentum of- Orbital basis functions:                        2
                             - Local part of the GTH pseudopotential:          2
                             - Non-local part of the GTH pseudopotential:      3


 SCF PARAMETERS         Density guess:                                    ATOMIC
                        --------------------------------------------------------
                        max_scf:                                              25
                        max_scf_history:                                       0
                        max_diis:                                              4
                        --------------------------------------------------------
                        eps_scf:                                        1.00E-07
                        eps_scf_history:                                0.00E+00
                        eps_diis:                                       1.00E-01
                        eps_eigval:                                     1.00E-05
                        --------------------------------------------------------
                        level_shift [a.u.]:                             0.000000
                        --------------------------------------------------------
                        Outer loop SCF in use 
                        No variables optimised in outer loop
                        eps_scf                                         1.00E-07
                        max_scf                                               20
                        No outer loop optimization
                        step_size                                       5.00E-01

 BFGS| Use rational function optimization for step estimation:                NO
 BFGS| Use model Hessian for initial guess:                                  YES
 BFGS| Restart Hessian:                                                       NO
 BFGS| Trust radius:                                                       0.378

 *******************************************************************************
 ***                     STARTING GEOMETRY OPTIMIZATION                      ***
 ***                                   BFGS                                  ***
 *******************************************************************************

 Number of electrons:                                                        656
 Number of occupied orbitals:                                                328
 Number of molecular orbitals:                                               328

 Number of orbital functions:                                               1460
 Number of independent orbital functions:                                   1460

 Extrapolation method: initial_guess


 SCF WAVEFUNCTION OPTIMIZATION

  ----------------------------------- OT ---------------------------------------
  Minimizer      : DIIS                : direct inversion
                                         in the iterative subspace
                                         using   7 DIIS vectors
                                         safer DIIS on
  Preconditioner : FULL_KINETIC        : inversion of T + eS
  Precond_solver : DEFAULT
  stepsize       :    0.15000000                  energy_gap     :    0.20000000
  eps_taylor     :   0.10000E-15                  max_taylor     :             4
  ----------------------------------- OT ---------------------------------------

  Step     Update method      Time    Convergence         Total energy    Change
  ------------------------------------------------------------------------------
     1 OT DIIS     0.15E+00    1.0     0.01897784     -1710.3655120869 -1.71E+03
     2 OT DIIS     0.15E+00    1.7     0.01127725     -1728.8392856516 -1.85E+01
     3 OT DIIS     0.15E+00    1.7     0.00837651     -1737.9570035811 -9.12E+00
     4 OT DIIS     0.15E+00    1.7     0.00558644     -1746.5796616712 -8.62E+00
     5 OT DIIS     0.15E+00    1.7     0.00414661     -1751.0373247755 -4.46E+00
     6 OT DIIS     0.15E+00    1.8     0.00319622     -1753.9135263059 -2.88E+00
     7 OT DIIS     0.15E+00    1.7     0.00244126     -1756.0608546551 -2.15E+00
     8 OT DIIS     0.15E+00    1.7     0.00191813     -1757.4608781488 -1.40E+00
     9 OT DIIS     0.15E+00    1.7     0.00153313     -1758.3908823428 -9.30E-01
    10 OT DIIS     0.15E+00    1.7     0.00130361     -1758.9887378800 -5.98E-01
    11 OT DIIS     0.15E+00    1.7     0.00111570     -1759.3947424102 -4.06E-01
    12 OT DIIS     0.15E+00    1.7     0.00099699     -1759.7400435046 -3.45E-01
    13 OT DIIS     0.15E+00    1.7     0.00087139     -1759.9829537492 -2.43E-01
    14 OT DIIS     0.15E+00    1.7     0.00077733     -1760.2087209401 -2.26E-01
    15 OT DIIS     0.15E+00    1.9     0.00069879     -1760.3851364807 -1.76E-01
    16 OT DIIS     0.15E+00    1.7     0.00064533     -1760.5297818143 -1.45E-01
    17 OT DIIS     0.15E+00    1.7     0.00060880     -1760.6403130407 -1.11E-01
    18 OT DIIS     0.15E+00    1.7     0.00057473     -1760.7348826308 -9.46E-02
    19 OT DIIS     0.15E+00    2.3     0.00054608     -1760.8378458802 -1.03E-01
    20 OT DIIS     0.15E+00    1.7     0.00049419     -1760.9136964026 -7.59E-02
    21 OT DIIS     0.15E+00    1.7     0.00047081     -1760.9699749299 -5.63E-02
    22 OT DIIS     0.15E+00    1.7     0.00039988     -1761.0425235076 -7.25E-02
    23 OT DIIS     0.15E+00    1.9     0.00031341     -1761.1160428061 -7.35E-02
    24 OT DIIS     0.15E+00    1.7     0.00025461     -1761.1582530929 -4.22E-02
    25 OT DIIS     0.15E+00    1.7     0.00019280     -1761.1871162237 -2.89E-02

  Leaving inner SCF loop after reaching    25 steps.


  Electronic density on regular grids:       -655.9999999993        0.0000000007
  Core density on regular grids:              655.9999999997       -0.0000000003
  Total charge density on r-space grids:        0.0000000004
  Total charge density g-space grids:           0.0000000004

  Overlap energy of the core charge distribution:               0.00000060301892
  Self energy of the core charge distribution:              -4144.80997841715816
  Core Hamiltonian energy:                                   1117.31611711809887
  Hartree energy:                                            1613.71278827030187
  Exchange-correlation energy:                               -346.91120937844772
  Dispersion energy:                                           -0.49483441953015

  Total energy:                                             -1761.18711622371643

  outer SCF iter =    1 RMS gradient =   0.19E-03 energy =      -1761.1871162237

  ----------------------------------- OT ---------------------------------------
  Minimizer      : DIIS                : direct inversion
                                         in the iterative subspace
                                         using   7 DIIS vectors
                                         safer DIIS on
  Preconditioner : FULL_KINETIC        : inversion of T + eS
  Precond_solver : DEFAULT
  stepsize       :    0.15000000                  energy_gap     :    0.20000000
  eps_taylor     :   0.10000E-15                  max_taylor     :             4
  ----------------------------------- OT ---------------------------------------

  Step     Update method      Time    Convergence         Total energy    Change
  ------------------------------------------------------------------------------
     1 OT DIIS     0.15E+00    3.5     0.00044321     -1761.1987256366 -1.16E-02
     2 OT DIIS     0.15E+00    1.8     0.00033910     -1761.2109166619 -1.22E-02
     3 OT DIIS     0.15E+00    1.7     0.00023663     -1761.2250411398 -1.41E-02
     4 OT DIIS     0.15E+00    1.7     0.00017341     -1761.2336065365 -8.57E-03
     5 OT DIIS     0.15E+00    1.7     0.00011493     -1761.2395984044 -5.99E-03
     6 OT DIIS     0.15E+00    1.8     0.00007451     -1761.2425399777 -2.94E-03
     7 OT DIIS     0.15E+00    1.7     0.00005258     -1761.2435889945 -1.05E-03
     8 OT DIIS     0.15E+00    1.7     0.00003311     -1761.2442045010 -6.16E-04
     9 OT DIIS     0.15E+00    1.7     0.00002267     -1761.2444266031 -2.22E-04
    10 OT DIIS     0.15E+00    1.8     0.00001634     -1761.2445212469 -9.46E-05
    11 OT DIIS     0.15E+00    1.8     0.00001115     -1761.2445769881 -5.57E-05
    12 OT DIIS     0.15E+00    1.7     0.00000779     -1761.2446019626 -2.50E-05
    13 OT DIIS     0.15E+00    1.7     0.00000559     -1761.2446130483 -1.11E-05
    14 OT DIIS     0.15E+00    1.8     0.00000406     -1761.2446182488 -5.20E-06
    15 OT DIIS     0.15E+00    1.7     0.00000309     -1761.2446206551 -2.41E-06
    16 OT DIIS     0.15E+00    1.7     0.00000234     -1761.2446220692 -1.41E-06
    17 OT DIIS     0.15E+00    1.7     0.00000183     -1761.2446228500 -7.81E-07
    18 OT DIIS     0.15E+00    1.8     0.00000142     -1761.2446233322 -4.82E-07
    19 OT DIIS     0.15E+00    1.7     0.00000108     -1761.2446236496 -3.17E-07
    20 OT DIIS     0.15E+00    2.1     0.00000081     -1761.2446238402 -1.91E-07
    21 OT DIIS     0.15E+00    1.7     0.00000063     -1761.2446239412 -1.01E-07
    22 OT DIIS     0.15E+00    1.8     0.00000049     -1761.2446240023 -6.10E-08
    23 OT DIIS     0.15E+00    1.7     0.00000038     -1761.2446240407 -3.85E-08
    24 OT DIIS     0.15E+00    1.7     0.00000029     -1761.2446240640 -2.33E-08
    25 OT DIIS     0.15E+00    1.7     0.00000023     -1761.2446240781 -1.40E-08

  Leaving inner SCF loop after reaching    25 steps.


  Electronic density on regular grids:       -655.9999999993        0.0000000007
  Core density on regular grids:              655.9999999997       -0.0000000003
  Total charge density on r-space grids:        0.0000000004
  Total charge density g-space grids:           0.0000000004

  Overlap energy of the core charge distribution:               0.00000060301892
  Self energy of the core charge distribution:              -4144.80997841715816
  Core Hamiltonian energy:                                   1117.32157513875154
  Hartree energy:                                            1613.66602129885428
  Exchange-correlation energy:                               -346.92740828199373
  Dispersion energy:                                           -0.49483441953015

  Total energy:                                             -1761.24462407805754

  outer SCF iter =    2 RMS gradient =   0.23E-06 energy =      -1761.2446240781

  ----------------------------------- OT ---------------------------------------
  Minimizer      : DIIS                : direct inversion
                                         in the iterative subspace
                                         using   7 DIIS vectors
                                         safer DIIS on
  Preconditioner : FULL_KINETIC        : inversion of T + eS
  Precond_solver : DEFAULT
  stepsize       :    0.15000000                  energy_gap     :    0.20000000
  eps_taylor     :   0.10000E-15                  max_taylor     :             4
  ----------------------------------- OT ---------------------------------------

  Step     Update method      Time    Convergence         Total energy    Change
  ------------------------------------------------------------------------------
     1 OT DIIS     0.15E+00    3.6     0.00000018     -1761.2446240863 -8.25E-09
     2 OT DIIS     0.15E+00    1.7     0.00000016     -1761.2446240886 -2.25E-09
     3 OT DIIS     0.15E+00    1.7     0.00000014     -1761.2446240918 -3.26E-09
     4 OT DIIS     0.15E+00    1.7     0.00000008     -1761.2446240981 -6.23E-09

  *** SCF run converged in     4 steps ***


  Electronic density on regular grids:       -655.9999999993        0.0000000007
  Core density on regular grids:              655.9999999997       -0.0000000003
  Total charge density on r-space grids:        0.0000000003
  Total charge density g-space grids:           0.0000000003

  Overlap energy of the core charge distribution:               0.00000060301892
  Self energy of the core charge distribution:              -4144.80997841715816
  Core Hamiltonian energy:                                   1117.32152763940758
  Hartree energy:                                            1613.66606200582510
  Exchange-correlation energy:                               -346.92740150961333
  Dispersion energy:                                           -0.49483441953015

  Total energy:                                             -1761.24462409805051

  outer SCF iter =    3 RMS gradient =   0.81E-07 energy =      -1761.2446240981
  outer SCF loop converged in   3 iterations or   54 steps


 ENERGY| Total FORCE_EVAL ( QS ) energy [a.u.]:            -1761.244624099913608

 ATOMIC FORCES in [a.u.]

 # Atom   Kind   Element          X              Y              Z
      1      1      Ca          0.00023652     0.00039025     0.00014379
      2      1      Ca         -0.00024125    -0.00032960    -0.00061649
      3      1      Ca          0.00008824    -0.00008431     0.00019090
      4      1      Ca         -0.00013327     0.00018927     0.00024515
      5      2      Si         -0.00016649    -0.00053045    -0.00014758
      6      2      Si         -0.00036833     0.00028078     0.00039644
      7      2      Si         -0.00003891    -0.00004527    -0.00013290
      8      3      O          -0.00013293    -0.00172407    -0.00083695
      9      3      O          -0.00004178    -0.00370484    -0.00018757
     10      3      O          -0.00087345    -0.00124738     0.00014732
     11      3      O           0.00022691     0.00015174    -0.00043882
     12      3      O           0.00016666    -0.00063952    -0.00157230
     13      3      O          -0.00003323     0.00183610     0.00054452
     14      3      O          -0.00143598     0.00104665    -0.00070662
     15      3      O          -0.00575405     0.01512972     0.00124055
     16      3      O          -0.00098295    -0.00073112     0.00024810
     17      3      O           0.00003168     0.00173997     0.00078295
     18      3      O           0.00017564    -0.00374797     0.00044280
     19      3      O          -0.00029356    -0.00282564    -0.00029013
     20      3      O           0.00004022    -0.00305039    -0.00287518
     21      3      O          -0.00320645    -0.00433628     0.00047843
     22      3      O          -0.00260410    -0.00997716     0.00282480
     23      3      O           0.00514715    -0.01342703    -0.00775963
     24      1      Ca         -0.00004962    -0.00095251     0.00062351
     25      1      Ca          0.00004694     0.00064352     0.00065142
     26      1      Ca          0.00019318     0.00075243    -0.00106297
     27      1      Ca          0.00008711    -0.00059268    -0.00054581
     28      2      Si          0.00161038     0.00005391    -0.00022186
     29      2      Si          0.00011483    -0.00039725    -0.00020531
     30      2      Si         -0.00008358     0.00007740     0.00019942
     31      3      O          -0.00465951    -0.00051016     0.00100872
     32      3      O          -0.00088567     0.00040729     0.00037901
     33      3      O          -0.00086035    -0.00000269     0.00016089
     34      3      O          -0.00298980     0.00175450     0.00028296
     35      3      O           0.00255907    -0.00033510     0.00043135
     36      3      O          -0.00165492    -0.00205979    -0.00026127
     37      3      O          -0.00163510    -0.00070029     0.00009528
     38      3      O           0.00304377    -0.01293526    -0.00357060
     39      3      O           0.00054103     0.00079350    -0.00027655
     40      3      O           0.00164665     0.00114152     0.00034377
     41      3      O          -0.00389529     0.00013598    -0.00126166
     42      3      O          -0.00036769    -0.00281246     0.00014376
     43      3      O           0.00401593    -0.00050956     0.00399280
     44      3      O           0.00014328    -0.00024694     0.00013895
     45      3      O           0.00390017     0.00709662    -0.00280818
     46      3      O          -0.00699635     0.01048746     0.00720291
     47      1      Ca         -0.00093426     0.00848441     0.00046506
     48      1      Ca          0.00034523     0.00023977     0.00012583
     49      1      Ca         -0.00039380    -0.00042052    -0.00059813
     50      1      Ca          0.00019751    -0.00020982     0.00023986
     51      1      Ca         -0.00020692     0.00020392     0.00038467
     52      2      Si         -0.00027871    -0.00029778    -0.00013775
     53      2      Si         -0.00025511     0.00007104     0.00042390
     54      2      Si         -0.00006019     0.00006815    -0.00000159
     55      3      O          -0.00033075    -0.00159466    -0.00074906
     56      3      O          -0.00014097    -0.00363475    -0.00016137
     57      3      O          -0.00103221    -0.00108742     0.00006464
     58      3      O           0.00012103     0.00027530    -0.00031386
     59      3      O           0.00027359    -0.00075329    -0.00150699
     60      3      O          -0.00008005     0.00180285     0.00043847
     61      3      O          -0.00151241     0.00094710    -0.00070069
     62      3      O          -0.00561880     0.01506678     0.00117891
     63      3      O          -0.00106409    -0.00084662     0.00043153
     64      3      O           0.00006012     0.00190321     0.00081513
     65      3      O           0.00012782    -0.00377676     0.00040494
     66      3      O          -0.00035365    -0.00268874    -0.00018189
     67      3      O          -0.00024070    -0.00346705    -0.00261764
     68      3      O          -0.00150195    -0.00345232     0.00166998
     69      3      O          -0.00288300    -0.01024753     0.00269852
     70      3      O           0.00524957    -0.00972822    -0.00824732
     71      1      Ca          0.00007990    -0.00103547     0.00053793
     72      1      Ca          0.00010205     0.00060253     0.00059147
     73      1      Ca          0.00014114     0.00081096    -0.00102033
     74      1      Ca          0.00008878    -0.00067611    -0.00075614
     75      2      Si          0.00149333     0.00008983    -0.00025800
     76      2      Si          0.00009838    -0.00030117    -0.00019140
     77      2      Si         -0.00007559     0.00025678     0.00005448
     78      3      O          -0.00444723    -0.00028493     0.00121391
     79      3      O          -0.00006199     0.00078981     0.00035488
     80      3      O          -0.00135502     0.00037527     0.00028743
     81      3      O          -0.00291647     0.00179900     0.00026875
     82      3      O           0.00276189    -0.00012832     0.00035204
     83      3      O          -0.00211575    -0.00174806    -0.00014394
     84      3      O          -0.00158926    -0.00058009     0.00011630
     85      3      O           0.00311513    -0.01293867    -0.00368453
     86      3      O           0.00013619     0.00112229    -0.00044811
     87      3      O           0.00151171     0.00112785     0.00023222
     88      3      O          -0.00368203     0.00041261    -0.00129984
     89      3      O          -0.00065258    -0.00268732     0.00022423
     90      3      O           0.00410726     0.00020890     0.00424663
     91      3      O           0.00011102    -0.00025794     0.00010397
     92      3      O           0.00343496     0.00722014    -0.00285698
     93      3      O          -0.00677052     0.01051628     0.00725392
     94      1      Ca         -0.00092797     0.00831416     0.00044002
     95      4      H           0.00098374     0.00294955     0.00065915
     96      4      H          -0.00073369     0.00166816     0.00065017
     97      4      H           0.00101949     0.00243291     0.00048965
     98      4      H          -0.00037853     0.00160258    -0.00034133
     99      4      H           0.00143983     0.00173154    -0.00179840
    100      4      H           0.00199884    -0.00152228    -0.00186712
    101      4      H          -0.00141473     0.00024533     0.00248616
    102      4      H           0.00085124    -0.00096160     0.00167885
    103      4      H          -0.00083444    -0.00241087    -0.00150656
    104      4      H          -0.00133679    -0.00030772    -0.00083562
    105      4      H          -0.00062919    -0.00108110    -0.00002335
    106      4      H           0.00030554    -0.00061976     0.00011623
    107      4      H          -0.00029879     0.00054403     0.00011391
    108      4      H          -0.00209486    -0.00371881     0.00164129
    109      4      H          -0.00029204     0.00078057    -0.00125735
    110      4      H           0.00264553    -0.00156669    -0.00170626
    111      4      H           0.00097291     0.00289398     0.00096383
    112      4      H          -0.00053807     0.00158679     0.00062882
    113      4      H           0.00060361     0.00190309     0.00046563
    114      4      H          -0.00054574     0.00124731    -0.00044528
    115      4      H           0.00149752     0.00163661    -0.00163040
    116      4      H           0.00220966    -0.00149830    -0.00200330
    117      4      H          -0.00150038    -0.00001752     0.00242812
    118      4      H           0.00084820    -0.00114727     0.00175000
    119      4      H          -0.00105806    -0.00252602    -0.00158681
    120      4      H          -0.00122842    -0.00036720    -0.00076811
    121      4      H          -0.00061641    -0.00115640    -0.00003663
    122      4      H           0.00033803    -0.00055453     0.00008267
    123      4      H          -0.00047011     0.00070182     0.00050828
    124      4      H          -0.00191306    -0.00365155     0.00190120
    125      4      H          -0.00041310     0.00086836    -0.00112826
    126      4      H           0.00259857    -0.00145953    -0.00174922
    127      4      H          -0.00000598     0.00003107     0.00003439
    128      4      H          -0.00001536    -0.00012796     0.00007118
    129      4      H           0.00038428    -0.00017357    -0.00034265
    130      4      H           0.00000706     0.00007140    -0.00005289
    131      4      H          -0.00004307     0.00015757    -0.00015817
    132      4      H          -0.00028847    -0.00010031     0.00054703
    133      4      H           0.00002070     0.00000626     0.00004559
    134      4      H           0.00006203    -0.00008626     0.00006764
    135      4      H           0.00035877    -0.00025170    -0.00023025
    136      4      H          -0.00000383     0.00005109    -0.00012177
    137      4      H          -0.00013774     0.00009259    -0.00013416
    138      4      H          -0.00030959    -0.00009725     0.00051134
 SUM OF ATOMIC FORCES          -0.03224953    -0.02668329    -0.00457656     0.04210671

 STRESS| Analytical stress tensor [GPa]
 STRESS|                        x                   y                   z
 STRESS|      x       -3.56821685077E-02  -2.85621196125E-01  -1.13595729458E-01
 STRESS|      y       -2.85621196125E-01   3.10516188798E-01   5.54887987174E-01
 STRESS|      z       -1.13595729458E-01   5.54887987174E-01   9.68301208332E-03
 STRESS| 1/3 Trace                                             9.48390107913E-02
 STRESS| Determinant                                           4.20895123056E-02

 STRESS| Eigenvectors and eigenvalues of the analytical stress tensor [GPa]
 STRESS|                        1                   2                   3
 STRESS| Eigenvalues  -4.36130226214E-01  -1.15428271899E-01   8.36075530487E-01
 STRESS|      x           0.247359817801      0.913443834367     -0.323161696359
 STRESS|      y           0.637130349060      0.097936446200      0.764508581255
 STRESS|      z          -0.729984957957      0.395004827771      0.557757247549

 OPT| **************************************************************************
 OPT| Step number                                                              0
 OPT| Optimization method                                                   BFGS
 OPT| Total energy [hartree]                                    -1761.2446240999
 OPT| Used time [s]                                                       98.993
 OPT| **************************************************************************
 OPT| Estimated peak process memory [MiB]                                    448

 --------------------------
 OPTIMIZATION STEP:      1
 --------------------------

 Number of electrons:                                                        656
 Number of occupied orbitals:                                                328
 Number of molecular orbitals:                                               328

 Number of orbital functions:                                               1460
 Number of independent orbital functions:                                   1460

 Extrapolation method: ASPC


 SCF WAVEFUNCTION OPTIMIZATION

  ----------------------------------- OT ---------------------------------------
  Minimizer      : DIIS                : direct inversion
                                         in the iterative subspace
                                         using   7 DIIS vectors
                                         safer DIIS on
  Preconditioner : FULL_KINETIC        : inversion of T + eS
  Precond_solver : DEFAULT
  stepsize       :    0.15000000                  energy_gap     :    0.20000000
  eps_taylor     :   0.10000E-15                  max_taylor     :             4
  ----------------------------------- OT ---------------------------------------

  Step     Update method      Time    Convergence         Total energy    Change
  ------------------------------------------------------------------------------
     1 OT DIIS     0.15E+00    1.0     0.00014994     -1761.2474455360 -1.76E+03
     2 OT DIIS     0.15E+00    1.7     0.00010137     -1761.2487777696 -1.33E-03
     3 OT DIIS     0.15E+00    1.8     0.00005286     -1761.2499447730 -1.17E-03
     4 OT DIIS     0.15E+00    1.7     0.00002975     -1761.2503953740 -4.51E-04
     5 OT DIIS     0.15E+00    1.7     0.00001897     -1761.2505528733 -1.57E-04
     6 OT DIIS     0.15E+00    1.7     0.00001240     -1761.2506201253 -6.73E-05
     7 OT DIIS     0.15E+00    1.8     0.00000784     -1761.2506503911 -3.03E-05
     8 OT DIIS     0.15E+00    1.7     0.00000498     -1761.2506624254 -1.20E-05
     9 OT DIIS     0.15E+00    1.7     0.00000357     -1761.2506662705 -3.85E-06
    10 OT DIIS     0.15E+00    1.7     0.00000241     -1761.2506685058 -2.24E-06
    11 OT DIIS     0.15E+00    1.8     0.00000157     -1761.2506696580 -1.15E-06
    12 OT DIIS     0.15E+00    1.7     0.00000108     -1761.2506701169 -4.59E-07
    13 OT DIIS     0.15E+00    1.7     0.00000072     -1761.2506703394 -2.23E-07
    14 OT DIIS     0.15E+00    1.7     0.00000045     -1761.2506704450 -1.06E-07
    15 OT DIIS     0.15E+00    2.3     0.00000031     -1761.2506704807 -3.57E-08
    16 OT DIIS     0.15E+00    1.7     0.00000021     -1761.2506704975 -1.68E-08
    17 OT DIIS     0.15E+00    1.7     0.00000015     -1761.2506705053 -7.77E-09
    18 OT DIIS     0.15E+00    1.7     0.00000011     -1761.2506705085 -3.14E-09
    19 OT DIIS     0.15E+00    1.8     0.00000007     -1761.2506705103 -1.86E-09

  *** SCF run converged in    19 steps ***


  Electronic density on regular grids:       -655.9999999993        0.0000000007
  Core density on regular grids:              655.9999999997       -0.0000000003
  Total charge density on r-space grids:        0.0000000004
  Total charge density g-space grids:           0.0000000004

  Overlap energy of the core charge distribution:               0.00000060351555
  Self energy of the core charge distribution:              -4144.80997841715816
  Core Hamiltonian energy:                                   1117.27159411915841
  Hartree energy:                                            1613.69942848750134
  Exchange-correlation energy:                               -346.91677914891568
  Dispersion energy:                                           -0.49493615441675

  Total energy:                                             -1761.25067051031601

  outer SCF iter =    1 RMS gradient =   0.74E-07 energy =      -1761.2506705103
  outer SCF loop converged in   1 iterations or   19 steps


 ENERGY| Total FORCE_EVAL ( QS ) energy [a.u.]:            -1761.250670511162753

 ATOMIC FORCES in [a.u.]

 # Atom   Kind   Element          X              Y              Z
      1      1      Ca         -0.00000936    -0.00035975    -0.00048192
      2      1      Ca         -0.00006928    -0.00015917    -0.00004426
      3      1      Ca         -0.00012007    -0.00030124    -0.00009936
      4      1      Ca         -0.00006410    -0.00087274    -0.00000014
      5      2      Si         -0.00059288     0.00096052     0.00052377
      6      2      Si          0.00023341    -0.00063391    -0.00084528
      7      2      Si         -0.00016602     0.00039025     0.00009167
      8      3      O           0.00015613    -0.00120130    -0.00013420
      9      3      O          -0.00025752    -0.00050832    -0.00025580
     10      3      O          -0.00039623    -0.00072765    -0.00019894
     11      3      O          -0.00026895     0.00066652     0.00081140
     12      3      O           0.00006667     0.00006102    -0.00028624
     13      3      O          -0.00047484     0.00172383    -0.00084250
     14      3      O          -0.00085250     0.00125130    -0.00006376
     15      3      O          -0.00070261     0.00435054     0.00208888
     16      3      O          -0.00071787    -0.00041719     0.00001489
     17      3      O          -0.00065033     0.00001637     0.00016432
     18      3      O          -0.00011215    -0.00133011     0.00018159
     19      3      O          -0.00057762     0.00005851     0.00029186
     20      3      O          -0.00143236     0.00238963    -0.00033540
     21      3      O          -0.00018770    -0.00005350    -0.00071979
     22      3      O          -0.00121237    -0.00266358     0.00058815
     23      3      O           0.00017578    -0.00260511    -0.00123703
     24      1      Ca         -0.00093780    -0.00023430    -0.00004310
     25      1      Ca         -0.00021924    -0.00058681     0.00055284
     26      1      Ca          0.00017632    -0.00064788    -0.00030341
     27      1      Ca         -0.00029626     0.00054623     0.00022175
     28      2      Si          0.00074130     0.00041300     0.00019042
     29      2      Si          0.00071668     0.00068310     0.00028544
     30      2      Si         -0.00100257    -0.00036878    -0.00017860
     31      3      O          -0.00040330    -0.00194650    -0.00059042
     32      3      O          -0.00045998     0.00037739    -0.00003172
     33      3      O          -0.00042712    -0.00040597    -0.00038374
     34      3      O          -0.00076710    -0.00012826    -0.00000448
     35      3      O           0.00097295    -0.00030040     0.00055010
     36      3      O          -0.00091326    -0.00006954    -0.00056273
     37      3      O          -0.00115876    -0.00038733    -0.00051861
     38      3      O           0.00017081    -0.00619857    -0.00067296
     39      3      O          -0.00002636     0.00004899     0.00069201
     40      3      O           0.00150249    -0.00009428    -0.00024476
     41      3      O           0.00155379    -0.00021754     0.00012926
     42      3      O          -0.00049648     0.00095301    -0.00029659
     43      3      O          -0.00147118    -0.00109054    -0.00167158
     44      3      O           0.00064244    -0.00173953    -0.00010502
     45      3      O          -0.00036938    -0.00066921    -0.00029432
     46      3      O           0.00072801     0.00326787     0.00157897
     47      1      Ca          0.00009016     0.00051859    -0.00010924
     48      1      Ca         -0.00006169    -0.00036136    -0.00048789
     49      1      Ca         -0.00014604    -0.00008997    -0.00000149
     50      1      Ca         -0.00006952    -0.00025967    -0.00003907
     51      1      Ca         -0.00004667    -0.00081053     0.00005150
     52      2      Si         -0.00064587     0.00121196     0.00031500
     53      2      Si          0.00031176    -0.00054399    -0.00081388
     54      2      Si         -0.00017063     0.00046258     0.00016790
     55      3      O           0.00019109    -0.00127466    -0.00028219
     56      3      O          -0.00021906    -0.00045265    -0.00046592
     57      3      O          -0.00057507    -0.00063961    -0.00007744
     58      3      O          -0.00038543     0.00070354     0.00076170
     59      3      O           0.00007460    -0.00006024    -0.00033915
     60      3      O          -0.00052575     0.00163753    -0.00080789
     61      3      O          -0.00076161     0.00117610    -0.00014595
     62      3      O          -0.00066121     0.00376790     0.00215870
     63      3      O          -0.00082628    -0.00054675     0.00007778
     64      3      O          -0.00068535     0.00011129     0.00013045
     65      3      O          -0.00012984    -0.00138141     0.00027983
     66      3      O          -0.00052766    -0.00014894     0.00025495
     67      3      O          -0.00187983     0.00271107     0.00018902
     68      3      O          -0.00133434    -0.00042339     0.00041317
     69      3      O          -0.00151105    -0.00267922     0.00073377
     70      3      O           0.00091524    -0.00367258    -0.00177606
     71      1      Ca         -0.00092720    -0.00013059     0.00005819
     72      1      Ca         -0.00014718    -0.00052215     0.00052550
     73      1      Ca          0.00020186    -0.00050739    -0.00036322
     74      1      Ca         -0.00041681     0.00082833     0.00031504
     75      2      Si          0.00062048     0.00043641     0.00023664
     76      2      Si          0.00079670     0.00127228     0.00043030
     77      2      Si         -0.00111295     0.00001171    -0.00026724
     78      3      O          -0.00034552    -0.00189500    -0.00062685
     79      3      O          -0.00022853     0.00069204    -0.00003687
     80      3      O          -0.00055566    -0.00031912    -0.00060122
     81      3      O          -0.00082423    -0.00031307     0.00006254
     82      3      O           0.00069146    -0.00057815     0.00050365
     83      3      O          -0.00081360     0.00018834    -0.00050290
     84      3      O          -0.00122397    -0.00042294    -0.00061151
     85      3      O           0.00006880    -0.00618582    -0.00080342
     86      3      O          -0.00034581    -0.00029921     0.00088855
     87      3      O           0.00137902    -0.00010357    -0.00029584
     88      3      O           0.00096978    -0.00063598     0.00004797
     89      3      O          -0.00066389     0.00090768    -0.00033285
     90      3      O          -0.00134515    -0.00057312    -0.00164130
     91      3      O           0.00067913    -0.00165520    -0.00002699
     92      3      O          -0.00004079    -0.00098935    -0.00044321
     93      3      O           0.00065086     0.00312644     0.00140137
     94      1      Ca         -0.00003353     0.00076742    -0.00008604
     95      4      H           0.00022680    -0.00009664    -0.00029583
     96      4      H           0.00058402     0.00037343     0.00015487
     97      4      H          -0.00011909     0.00076578     0.00001551
     98      4      H          -0.00034104    -0.00043027     0.00022734
     99      4      H          -0.00014654    -0.00083080    -0.00036690
    100      4      H           0.00016622    -0.00097818    -0.00067556
    101      4      H           0.00001312    -0.00154226    -0.00059448
    102      4      H          -0.00008235    -0.00087503     0.00087417
    103      4      H           0.00149197     0.00107004    -0.00103951
    104      4      H           0.00109128    -0.00113217     0.00179712
    105      4      H          -0.00055260    -0.00071646     0.00023003
    106      4      H          -0.00012269     0.00078497    -0.00041272
    107      4      H          -0.00041739     0.00121064     0.00052230
    108      4      H           0.00021030     0.00221354    -0.00054933
    109      4      H          -0.00077964     0.00014503    -0.00032659
    110      4      H          -0.00120675     0.00153637     0.00035208
    111      4      H           0.00029517    -0.00023751    -0.00001924
    112      4      H           0.00073211     0.00028615     0.00029348
    113      4      H           0.00013545    -0.00015455     0.00023784
    114      4      H           0.00006207    -0.00012750     0.00050390
    115      4      H          -0.00004131    -0.00089704    -0.00043157
    116      4      H           0.00018820    -0.00107329    -0.00078994
    117      4      H           0.00008913    -0.00095190    -0.00123575
    118      4      H          -0.00016333    -0.00007442     0.00076938
    119      4      H           0.00129796     0.00133391    -0.00107603
    120      4      H           0.00117026    -0.00111814     0.00192829
    121      4      H          -0.00057385    -0.00071329     0.00021380
    122      4      H          -0.00007742     0.00076912    -0.00049373
    123      4      H          -0.00065070     0.00141568     0.00082201
    124      4      H           0.00017546     0.00221988    -0.00028853
    125      4      H          -0.00078466     0.00014525    -0.00026021
    126      4      H          -0.00119581     0.00168327     0.00049452
    127      4      H           0.00005027    -0.00056523    -0.00007112
    128      4      H           0.00034451    -0.00059185    -0.00033665
    129      4      H          -0.00011211    -0.00071778    -0.00005449
    130      4      H          -0.00032498    -0.00000825     0.00012304
    131      4      H          -0.00064193     0.00023664     0.00000071
    132      4      H          -0.00018266    -0.00052362     0.00024531
    133      4      H           0.00008507    -0.00058141     0.00007290
    134      4      H           0.00037254    -0.00056050    -0.00031859
    135      4      H          -0.00014544    -0.00073337     0.00003975
    136      4      H          -0.00018652     0.00000963     0.00006931
    137      4      H          -0.00066614     0.00021797    -0.00012494
    138      4      H          -0.00025778    -0.00050915     0.00024600
 SUM OF ATOMIC FORCES          -0.02351435    -0.01702866    -0.00399951     0.02930693

 STRESS| Analytical stress tensor [GPa]
 STRESS|                        x                   y                   z
 STRESS|      x       -4.27452515652E-02  -1.25113024273E-01  -1.02975298261E-02
 STRESS|      y       -1.25113024273E-01   1.49150371965E-01   3.23026853049E-01
 STRESS|      z       -1.02975298261E-02   3.23026853049E-01  -2.12967496882E-02
 STRESS| 1/3 Trace                                             2.83694569037E-02
 STRESS| Determinant                                           5.74598223923E-03

 STRESS| Eigenvectors and eigenvalues of the analytical stress tensor [GPa]
 STRESS|                        1                   2                   3
 STRESS| Eigenvalues  -2.90254647193E-01  -4.68834023442E-02   4.22246420248E-01
 STRESS|      x           0.282464449602      0.932739045938     -0.224079688713
 STRESS|      y           0.619105173376      0.001175239267      0.785307203018
 STRESS|      z          -0.732750038561      0.360550261399      0.577131605437

 OPT| **************************************************************************
 OPT| Step number                                                              1
 OPT| Optimization method                                                   BFGS
 OPT| Total energy [hartree]                                    -1761.2506705112
 OPT| Effective energy change [hartree]                            -0.0060464112
 OPT| Predicted energy change [hartree]                            -0.0052088184
 OPT| Scaling factor                                                0.0000000000
 OPT| Step size                                                     0.0667685888
 OPT| Trust radius                                                  0.3779452266
 OPT| Decrease in energy                                                     YES
 OPT| Used time [s]                                                       37.142
 OPT|
 OPT| Maximum step size                                             0.0667685888
 OPT| Convergence limit for maximum step size                       0.0030000000
 OPT| Maximum step size is converged                                          NO
 OPT|
 OPT| RMS step size                                                 0.0123159950
 OPT| Convergence limit for RMS step size                           0.0015000000
 OPT| RMS step size is converged                                              NO
 OPT|
 OPT| Maximum gradient                                              0.0061985731
 OPT| Convergence limit for maximum gradient                        0.0004500000
 OPT| Maximum gradient is converged                                           NO
 OPT|
 OPT| RMS gradient                                                  0.0009634296
 OPT| Convergence limit for RMS gradient                            0.0003000000
 OPT| RMS gradient is converged                                               NO
 OPT| **************************************************************************
 OPT| Estimated peak process memory after this step [MiB]                    510

 --------------------------
 OPTIMIZATION STEP:      2
 --------------------------

 Number of electrons:                                                        656
 Number of occupied orbitals:                                                328
 Number of molecular orbitals:                                               328

 Number of orbital functions:                                               1460
 Number of independent orbital functions:                                   1460

 Extrapolation method: ASPC


 SCF WAVEFUNCTION OPTIMIZATION

  ----------------------------------- OT ---------------------------------------
  Minimizer      : DIIS                : direct inversion
                                         in the iterative subspace
                                         using   7 DIIS vectors
                                         safer DIIS on
  Preconditioner : FULL_KINETIC        : inversion of T + eS
  Precond_solver : DEFAULT
  stepsize       :    0.15000000                  energy_gap     :    0.20000000
  eps_taylor     :   0.10000E-15                  max_taylor     :             4
  ----------------------------------- OT ---------------------------------------

  Step     Update method      Time    Convergence         Total energy    Change
  ------------------------------------------------------------------------------
     1 OT DIIS     0.15E+00    1.2     0.00014677     -1761.2491045239 -1.76E+03
     2 OT DIIS     0.15E+00    1.7     0.00009836     -1761.2503755356 -1.27E-03
     3 OT DIIS     0.15E+00    1.7     0.00005107     -1761.2514554159 -1.08E-03
     4 OT DIIS     0.15E+00    1.7     0.00002794     -1761.2518693726 -4.14E-04
     5 OT DIIS     0.15E+00    1.9     0.00001793     -1761.2520036069 -1.34E-04
     6 OT DIIS     0.15E+00    1.7     0.00001200     -1761.2520610653 -5.75E-05
     7 OT DIIS     0.15E+00    1.7     0.00000747     -1761.2520896679 -2.86E-05
     8 OT DIIS     0.15E+00    1.7     0.00000470     -1761.2521004647 -1.08E-05
     9 OT DIIS     0.15E+00    1.9     0.00000332     -1761.2521038646 -3.40E-06
    10 OT DIIS     0.15E+00    1.7     0.00000222     -1761.2521057551 -1.89E-06
    11 OT DIIS     0.15E+00    1.7     0.00000145     -1761.2521067241 -9.69E-07
    12 OT DIIS     0.15E+00    1.7     0.00000102     -1761.2521071084 -3.84E-07
    13 OT DIIS     0.15E+00    1.7     0.00000069     -1761.2521073057 -1.97E-07
    14 OT DIIS     0.15E+00    1.8     0.00000043     -1761.2521074064 -1.01E-07
    15 OT DIIS     0.15E+00    1.8     0.00000030     -1761.2521074392 -3.28E-08
    16 OT DIIS     0.15E+00    1.7     0.00000020     -1761.2521074545 -1.53E-08
    17 OT DIIS     0.15E+00    1.7     0.00000014     -1761.2521074616 -7.09E-09
    18 OT DIIS     0.15E+00    1.8     0.00000010     -1761.2521074647 -3.06E-09
    19 OT DIIS     0.15E+00    1.7     0.00000007     -1761.2521074664 -1.72E-09

  *** SCF run converged in    19 steps ***


  Electronic density on regular grids:       -655.9999999993        0.0000000007
  Core density on regular grids:              655.9999999997       -0.0000000003
  Total charge density on r-space grids:        0.0000000004
  Total charge density g-space grids:           0.0000000004

  Overlap energy of the core charge distribution:               0.00000060268337
  Self energy of the core charge distribution:              -4144.80997841715816
  Core Hamiltonian energy:                                   1117.23069919942509
  Hartree energy:                                            1613.72942499605097
  Exchange-correlation energy:                               -346.90725126382449
  Dispersion energy:                                           -0.49500258356286

  Total energy:                                             -1761.25210746638641

  outer SCF iter =    1 RMS gradient =   0.71E-07 energy =      -1761.2521074664
  outer SCF loop converged in   1 iterations or   19 steps


 ENERGY| Total FORCE_EVAL ( QS ) energy [a.u.]:            -1761.252107467175165

 ATOMIC FORCES in [a.u.]

 # Atom   Kind   Element          X              Y              Z
      1      1      Ca         -0.00022081    -0.00027375     0.00025725
      2      1      Ca         -0.00009859    -0.00017388    -0.00015283
      3      1      Ca         -0.00002261    -0.00054185     0.00018903
      4      1      Ca         -0.00007608    -0.00068300    -0.00010583
      5      2      Si         -0.00042112     0.00062986     0.00012545
      6      2      Si          0.00014730     0.00000662    -0.00019438
      7      2      Si          0.00002338    -0.00031219     0.00041122
      8      3      O          -0.00068424     0.00066317     0.00036875
      9      3      O           0.00024012     0.00125073    -0.00000399
     10      3      O          -0.00001901    -0.00043622    -0.00058049
     11      3      O          -0.00051548     0.00024682     0.00003487
     12      3      O           0.00072250     0.00096079    -0.00008823
     13      3      O          -0.00123569     0.00123900    -0.00048394
     14      3      O          -0.00049009     0.00099218    -0.00016469
     15      3      O           0.00090162     0.00108163     0.00039379
     16      3      O          -0.00037913     0.00012900    -0.00034252
     17      3      O          -0.00122913     0.00012628    -0.00042467
     18      3      O          -0.00039889     0.00201859    -0.00029482
     19      3      O           0.00045123     0.00016528    -0.00050317
     20      3      O           0.00014153    -0.00053184     0.00043553
     21      3      O          -0.00023424     0.00027529     0.00015135
     22      3      O          -0.00016448     0.00290911    -0.00102929
     23      3      O          -0.00178702     0.00152090     0.00239278
     24      1      Ca         -0.00054071    -0.00010254    -0.00039187
     25      1      Ca          0.00001505    -0.00024244     0.00018749
     26      1      Ca         -0.00008512    -0.00039275     0.00006130
     27      1      Ca          0.00002360     0.00034621    -0.00005911
     28      2      Si         -0.00023182    -0.00055720     0.00004749
     29      2      Si         -0.00030672    -0.00029840     0.00010564
     30      2      Si         -0.00094613     0.00019379    -0.00041699
     31      3      O          -0.00013020     0.00093632    -0.00071410
     32      3      O           0.00000948     0.00007028    -0.00048806
     33      3      O          -0.00007335    -0.00050440     0.00007419
     34      3      O           0.00097694    -0.00043971    -0.00048356
     35      3      O           0.00043555     0.00031277    -0.00031568
     36      3      O          -0.00037195     0.00008093     0.00043092
     37      3      O           0.00066829    -0.00032569    -0.00032309
     38      3      O          -0.00051106     0.00032076     0.00125209
     39      3      O           0.00007299    -0.00019388     0.00056189
     40      3      O           0.00109532    -0.00027872     0.00023897
     41      3      O          -0.00012871    -0.00011530     0.00050607
     42      3      O          -0.00068226     0.00004695     0.00037965
     43      3      O          -0.00058013    -0.00133710     0.00034429
     44      3      O           0.00019065     0.00224339     0.00058966
     45      3      O          -0.00150305    -0.00296266     0.00137204
     46      3      O           0.00044166    -0.00087281    -0.00162704
     47      1      Ca          0.00020572    -0.00118953    -0.00031290
     48      1      Ca         -0.00022537    -0.00026142     0.00024763
     49      1      Ca         -0.00000698    -0.00028185    -0.00019036
     50      1      Ca         -0.00018884    -0.00057390     0.00009448
     51      1      Ca         -0.00012238    -0.00070375     0.00005168
     52      2      Si         -0.00040761     0.00032292    -0.00002284
     53      2      Si          0.00006565     0.00024893    -0.00011236
     54      2      Si          0.00000857    -0.00024673     0.00019999
     55      3      O          -0.00074853     0.00037756     0.00035685
     56      3      O           0.00017500     0.00131632    -0.00009589
     57      3      O          -0.00018529    -0.00039424    -0.00053865
     58      3      O          -0.00057166     0.00033048    -0.00002462
     59      3      O           0.00064010     0.00087797     0.00010179
     60      3      O          -0.00141428     0.00117354    -0.00031420
     61      3      O          -0.00041006     0.00102745    -0.00025454
     62      3      O           0.00094849     0.00120071     0.00032330
     63      3      O          -0.00034143     0.00004301    -0.00033296
     64      3      O          -0.00116651     0.00011140    -0.00025009
     65      3      O          -0.00045501     0.00214246    -0.00024007
     66      3      O           0.00041072     0.00028087    -0.00039498
     67      3      O          -0.00010379    -0.00132647     0.00058324
     68      3      O           0.00012424    -0.00039431     0.00020930
     69      3      O           0.00007846     0.00335961    -0.00109278
     70      3      O          -0.00103223    -0.00006170     0.00157424
     71      1      Ca         -0.00061191    -0.00023028    -0.00042953
     72      1      Ca         -0.00018858    -0.00026863     0.00034013
     73      1      Ca         -0.00002004    -0.00037520     0.00009622
     74      1      Ca         -0.00009353     0.00022784    -0.00007642
     75      2      Si         -0.00030541    -0.00053849     0.00015410
     76      2      Si         -0.00041937    -0.00041519     0.00007469
     77      2      Si         -0.00063553     0.00024304    -0.00052987
     78      3      O          -0.00021230     0.00072944    -0.00066129
     79      3      O          -0.00010376     0.00015674    -0.00054518
     80      3      O          -0.00026852    -0.00028473     0.00027616
     81      3      O           0.00077856    -0.00017683    -0.00056893
     82      3      O           0.00025020     0.00037835    -0.00038964
     83      3      O          -0.00010879     0.00030746     0.00053996
     84      3      O           0.00076618    -0.00034071    -0.00037914
     85      3      O          -0.00061701     0.00025060     0.00104541
     86      3      O          -0.00030640    -0.00025537     0.00070782
     87      3      O           0.00082696    -0.00021976     0.00029797
     88      3      O           0.00010812     0.00018080     0.00054473
     89      3      O          -0.00070967     0.00011867     0.00033525
     90      3      O          -0.00021597    -0.00132138     0.00046106
     91      3      O           0.00020189     0.00209456     0.00052143
     92      3      O          -0.00135231    -0.00289499     0.00135250
     93      3      O           0.00050880    -0.00094861    -0.00161881
     94      1      Ca          0.00017234    -0.00122682    -0.00032129
     95      4      H           0.00018236     0.00000864    -0.00040385
     96      4      H          -0.00022761     0.00034734    -0.00003330
     97      4      H           0.00017001     0.00008358    -0.00024163
     98      4      H          -0.00014896    -0.00029246     0.00001736
     99      4      H          -0.00031467    -0.00277509     0.00090360
    100      4      H          -0.00084019    -0.00115500     0.00009007
    101      4      H           0.00125337    -0.00240394    -0.00165351
    102      4      H          -0.00019202    -0.00077214    -0.00021966
    103      4      H          -0.00028924    -0.00076328     0.00040000
    104      4      H           0.00148557     0.00085657    -0.00015374
    105      4      H          -0.00078191    -0.00087560     0.00012652
    106      4      H           0.00056424    -0.00111167    -0.00027017
    107      4      H          -0.00037758     0.00047775     0.00051624
    108      4      H           0.00114704     0.00371844    -0.00184982
    109      4      H          -0.00002649    -0.00008946     0.00037864
    110      4      H          -0.00196979     0.00306783     0.00181440
    111      4      H           0.00029070     0.00006033    -0.00009331
    112      4      H          -0.00003725     0.00049825    -0.00003031
    113      4      H          -0.00038444    -0.00029413     0.00011899
    114      4      H          -0.00059761    -0.00041620     0.00037652
    115      4      H          -0.00037784    -0.00285212     0.00097439
    116      4      H          -0.00098117    -0.00109593     0.00002029
    117      4      H           0.00143050    -0.00253740    -0.00144114
    118      4      H          -0.00002365    -0.00074167    -0.00076054
    119      4      H          -0.00048055    -0.00053931     0.00031497
    120      4      H           0.00149740     0.00109548    -0.00001450
    121      4      H          -0.00074212    -0.00090458     0.00013821
    122      4      H           0.00060102    -0.00097180    -0.00038114
    123      4      H          -0.00052418     0.00044579     0.00071910
    124      4      H           0.00118731     0.00359659    -0.00170469
    125      4      H          -0.00006859    -0.00008486     0.00033847
    126      4      H          -0.00197748     0.00311185     0.00182931
    127      4      H          -0.00004860    -0.00070714    -0.00014084
    128      4      H           0.00030565    -0.00093886    -0.00042398
    129      4      H          -0.00039692    -0.00053667     0.00020325
    130      4      H          -0.00034007     0.00019637     0.00011051
    131      4      H          -0.00049563     0.00001868    -0.00007201
    132      4      H          -0.00015060    -0.00022604    -0.00009421
    133      4      H           0.00000452    -0.00071753    -0.00010231
    134      4      H           0.00030792    -0.00098740    -0.00043938
    135      4      H          -0.00040883    -0.00061600     0.00023422
    136      4      H          -0.00020181     0.00024871     0.00015465
    137      4      H          -0.00055558    -0.00000049    -0.00019741
    138      4      H          -0.00027484    -0.00021631    -0.00009998
 SUM OF ATOMIC FORCES          -0.01859830     0.00196928     0.00147428     0.01876028

 STRESS| Analytical stress tensor [GPa]
 STRESS|                        x                   y                   z
 STRESS|      x       -1.00849535962E-01   1.52624087180E-02   1.70998916497E-02
 STRESS|      y        1.52624087180E-02   5.13746687798E-02   2.08892477125E-01
 STRESS|      z        1.70998916497E-02   2.08892477125E-01   4.87441724096E-03
 STRESS| 1/3 Trace                                            -1.48668166469E-02
 STRESS| Determinant                                           4.46830031004E-03

 STRESS| Eigenvectors and eigenvalues of the analytical stress tensor [GPa]
 STRESS|                        1                   2                   3
 STRESS| Eigenvalues  -1.82140020322E-01  -1.02290175866E-01   2.39829746247E-01
 STRESS|      x          -0.032022420000      0.997258396810      0.066710228677
 STRESS|      y          -0.665215556762     -0.071079751623      0.743260339283
 STRESS|      z           0.745964360851     -0.020575687157      0.665667945329

 OPT| **************************************************************************
 OPT| Step number                                                              2
 OPT| Optimization method                                                   BFGS
 OPT| Total energy [hartree]                                    -1761.2521074672
 OPT| Effective energy change [hartree]                            -0.0014369560
 OPT| Predicted energy change [hartree]                            -0.0013953942
 OPT| Scaling factor                                                0.0000000000
 OPT| Step size                                                     0.0393273313
 OPT| Trust radius                                                  0.3779452266
 OPT| Decrease in energy                                                     YES
 OPT| Used time [s]                                                       37.449
 OPT|
 OPT| Maximum step size                                             0.0393273313
 OPT| Convergence limit for maximum step size                       0.0030000000
 OPT| Maximum step size is converged                                          NO
 OPT|
 OPT| RMS step size                                                 0.0084801230
 OPT| Convergence limit for RMS step size                           0.0015000000
 OPT| RMS step size is converged                                              NO
 OPT|
 OPT| Maximum gradient                                              0.0037184414
 OPT| Convergence limit for maximum gradient                        0.0004500000
 OPT| Maximum gradient is converged                                           NO
 OPT|
 OPT| RMS gradient                                                  0.0008368820
 OPT| Convergence limit for RMS gradient                            0.0003000000
 OPT| RMS gradient is converged                                               NO
 OPT| **************************************************************************
 OPT| Estimated peak process memory after this step [MiB]                    510

 --------------------------
 OPTIMIZATION STEP:      3
 --------------------------

 Number of electrons:                                                        656
 Number of occupied orbitals:                                                328
 Number of molecular orbitals:                                               328

 Number of orbital functions:                                               1460
 Number of independent orbital functions:                                   1460

 Extrapolation method: ASPC


 SCF WAVEFUNCTION OPTIMIZATION

  ----------------------------------- OT ---------------------------------------
  Minimizer      : DIIS                : direct inversion
                                         in the iterative subspace
                                         using   7 DIIS vectors
                                         safer DIIS on
  Preconditioner : FULL_KINETIC        : inversion of T + eS
  Precond_solver : DEFAULT
  stepsize       :    0.15000000                  energy_gap     :    0.20000000
  eps_taylor     :   0.10000E-15                  max_taylor     :             4
  ----------------------------------- OT ---------------------------------------

  Step     Update method      Time    Convergence         Total energy    Change
  ------------------------------------------------------------------------------
     1 OT DIIS     0.15E+00    1.0     0.00012251     -1761.2507886671 -1.76E+03
     2 OT DIIS     0.15E+00    1.7     0.00008209     -1761.2516753370 -8.87E-04
     3 OT DIIS     0.15E+00    1.7     0.00004092     -1761.2524301358 -7.55E-04
     4 OT DIIS     0.15E+00    1.8     0.00002211     -1761.2526887492 -2.59E-04
     5 OT DIIS     0.15E+00    1.7     0.00001412     -1761.2527702824 -8.15E-05
     6 OT DIIS     0.15E+00    1.7     0.00000950     -1761.2528047292 -3.44E-05
     7 OT DIIS     0.15E+00    1.7     0.00000590     -1761.2528223882 -1.77E-05
     8 OT DIIS     0.15E+00    1.7     0.00000373     -1761.2528289284 -6.54E-06
     9 OT DIIS     0.15E+00    1.7     0.00000259     -1761.2528311042 -2.18E-06
    10 OT DIIS     0.15E+00    1.7     0.00000170     -1761.2528322764 -1.17E-06
    11 OT DIIS     0.15E+00    1.7     0.00000111     -1761.2528328166 -5.40E-07
    12 OT DIIS     0.15E+00    1.8     0.00000078     -1761.2528330382 -2.22E-07
    13 OT DIIS     0.15E+00    1.7     0.00000053     -1761.2528331519 -1.14E-07
    14 OT DIIS     0.15E+00    1.7     0.00000034     -1761.2528332112 -5.93E-08
    15 OT DIIS     0.15E+00    1.7     0.00000024     -1761.2528332316 -2.04E-08
    16 OT DIIS     0.15E+00    1.9     0.00000017     -1761.2528332414 -9.80E-09
    17 OT DIIS     0.15E+00    1.7     0.00000012     -1761.2528332459 -4.49E-09
    18 OT DIIS     0.15E+00    1.7     0.00000009     -1761.2528332481 -2.21E-09

  *** SCF run converged in    18 steps ***


  Electronic density on regular grids:       -655.9999999993        0.0000000007
  Core density on regular grids:              655.9999999997       -0.0000000003
  Total charge density on r-space grids:        0.0000000004
  Total charge density g-space grids:           0.0000000004

  Overlap energy of the core charge distribution:               0.00000059990327
  Self energy of the core charge distribution:              -4144.80997841715816
  Core Hamiltonian energy:                                   1117.20637346469630
  Hartree energy:                                            1613.74753780928404
  Exchange-correlation energy:                               -346.90174498280919
  Dispersion energy:                                           -0.49502172202814

  Total energy:                                             -1761.25283324811176

  outer SCF iter =    1 RMS gradient =   0.86E-07 energy =      -1761.2528332481
  outer SCF loop converged in   1 iterations or   18 steps


 ENERGY| Total FORCE_EVAL ( QS ) energy [a.u.]:            -1761.252833249335481

 ATOMIC FORCES in [a.u.]

 # Atom   Kind   Element          X              Y              Z
      1      1      Ca         -0.00019086    -0.00014798     0.00013353
      2      1      Ca         -0.00021077    -0.00020153    -0.00010787
      3      1      Ca         -0.00005226    -0.00029504    -0.00016065
      4      1      Ca         -0.00027777    -0.00025932     0.00000499
      5      2      Si          0.00009960     0.00080333     0.00011047
      6      2      Si          0.00007262    -0.00006106    -0.00019491
      7      2      Si         -0.00040275    -0.00044222     0.00049822
      8      3      O          -0.00007648     0.00034878     0.00039561
      9      3      O          -0.00026453     0.00006936    -0.00007325
     10      3      O           0.00042972    -0.00001626    -0.00046706
     11      3      O          -0.00060774     0.00038115    -0.00003087
     12      3      O           0.00027418     0.00165269    -0.00027135
     13      3      O          -0.00136928     0.00071120    -0.00061102
     14      3      O          -0.00029537     0.00087954    -0.00008305
     15      3      O           0.00145608    -0.00071206    -0.00008043
     16      3      O          -0.00000323     0.00028427    -0.00017464
     17      3      O          -0.00088190    -0.00005985    -0.00065122
     18      3      O           0.00005113     0.00018310    -0.00011927
     19      3      O           0.00030561     0.00019803     0.00009583
     20      3      O           0.00021918    -0.00029868    -0.00008994
     21      3      O          -0.00006791    -0.00032699    -0.00003493
     22      3      O           0.00096140     0.00264201    -0.00155165
     23      3      O          -0.00177995     0.00191698     0.00205027
     24      1      Ca         -0.00026771     0.00004120    -0.00031780
     25      1      Ca         -0.00031077    -0.00018222    -0.00003072
     26      1      Ca         -0.00017488    -0.00009372     0.00008431
     27      1      Ca         -0.00005133    -0.00000146    -0.00011944
     28      2      Si         -0.00061667     0.00013391    -0.00031387
     29      2      Si          0.00007891    -0.00041195    -0.00007480
     30      2      Si         -0.00006921    -0.00012875    -0.00002085
     31      3      O           0.00025565    -0.00017366     0.00003569
     32      3      O           0.00009635    -0.00001266    -0.00018670
     33      3      O           0.00012497    -0.00029602     0.00010971
     34      3      O           0.00021091     0.00009068     0.00039030
     35      3      O          -0.00065093    -0.00006757    -0.00032898
     36      3      O           0.00022841     0.00061679     0.00041621
     37      3      O           0.00016575    -0.00031859     0.00008892
     38      3      O          -0.00006351     0.00106695     0.00102607
     39      3      O           0.00031159    -0.00012088    -0.00009999
     40      3      O           0.00032602     0.00034184     0.00050895
     41      3      O          -0.00018962     0.00003125     0.00031045
     42      3      O          -0.00067805     0.00000395    -0.00012284
     43      3      O          -0.00010824    -0.00086999     0.00033657
     44      3      O           0.00021117     0.00148094     0.00004019
     45      3      O          -0.00096141    -0.00175222     0.00083710
     46      3      O           0.00044030    -0.00167251    -0.00188321
     47      1      Ca         -0.00009934    -0.00075417     0.00010367
     48      1      Ca         -0.00026503    -0.00009744     0.00012127
     49      1      Ca         -0.00016964    -0.00021358    -0.00015579
     50      1      Ca         -0.00010681    -0.00022984    -0.00018237
     51      1      Ca         -0.00030522    -0.00029890     0.00007382
     52      2      Si          0.00016509     0.00063917    -0.00002646
     53      2      Si          0.00004068     0.00014045    -0.00014040
     54      2      Si         -0.00041373    -0.00040520     0.00044630
     55      3      O          -0.00021125     0.00042676     0.00054779
     56      3      O          -0.00022399     0.00001720    -0.00013305
     57      3      O           0.00025214     0.00017700    -0.00047840
     58      3      O          -0.00063506     0.00040086    -0.00008971
     59      3      O           0.00020038     0.00162908    -0.00006916
     60      3      O          -0.00155327     0.00063606    -0.00053327
     61      3      O          -0.00029634     0.00097211    -0.00011944
     62      3      O           0.00163928    -0.00019344     0.00002454
     63      3      O          -0.00000611     0.00008526    -0.00020277
     64      3      O          -0.00076449    -0.00009275    -0.00063845
     65      3      O           0.00009263     0.00016824    -0.00009263
     66      3      O           0.00031745     0.00018119     0.00006376
     67      3      O           0.00004830    -0.00028554    -0.00012872
     68      3      O           0.00003064    -0.00054148     0.00010186
     69      3      O           0.00131238     0.00277566    -0.00182300
     70      3      O          -0.00123162     0.00127284     0.00184055
     71      1      Ca         -0.00032793     0.00001944    -0.00036128
     72      1      Ca         -0.00035356    -0.00026097     0.00020301
     73      1      Ca         -0.00021630    -0.00007352     0.00011220
     74      1      Ca         -0.00009316    -0.00002787    -0.00003791
     75      2      Si         -0.00068101     0.00009832    -0.00005100
     76      2      Si         -0.00016870    -0.00028552    -0.00008287
     77      2      Si          0.00016632    -0.00003787    -0.00008049
     78      3      O           0.00014855    -0.00010582     0.00009385
     79      3      O          -0.00007366     0.00004916    -0.00023254
     80      3      O           0.00011501    -0.00006324     0.00014812
     81      3      O           0.00033598    -0.00003160     0.00030587
     82      3      O          -0.00070137    -0.00000452    -0.00020235
     83      3      O           0.00043880     0.00060385     0.00039242
     84      3      O           0.00014679    -0.00032098     0.00007502
     85      3      O          -0.00013048     0.00111770     0.00091312
     86      3      O           0.00003086    -0.00013102    -0.00015932
     87      3      O           0.00027147     0.00026073     0.00055664
     88      3      O          -0.00017373     0.00014553     0.00035059
     89      3      O          -0.00048933    -0.00001051    -0.00012663
     90      3      O          -0.00001889    -0.00100723     0.00059545
     91      3      O           0.00019942     0.00155552     0.00004762
     92      3      O          -0.00090588    -0.00172021     0.00085559
     93      3      O           0.00052851    -0.00163001    -0.00179823
     94      1      Ca         -0.00006500    -0.00083605     0.00004763
     95      4      H          -0.00008561    -0.00017364     0.00010373
     96      4      H          -0.00016364     0.00014323     0.00015866
     97      4      H           0.00030003     0.00002472     0.00002423
     98      4      H          -0.00018849    -0.00001768     0.00006210
     99      4      H          -0.00096800    -0.00255560     0.00155054
    100      4      H          -0.00093866    -0.00009154    -0.00004265
    101      4      H           0.00156374    -0.00227632    -0.00144859
    102      4      H          -0.00016871    -0.00058305    -0.00018048
    103      4      H          -0.00034553    -0.00046595     0.00030332
    104      4      H           0.00082880     0.00050784     0.00000495
    105      4      H          -0.00044692    -0.00045897     0.00021020
    106      4      H           0.00033077    -0.00066228    -0.00015151
    107      4      H          -0.00007589     0.00018355     0.00008035
    108      4      H           0.00050852     0.00218284    -0.00092136
    109      4      H          -0.00017295     0.00051057     0.00091570
    110      4      H          -0.00180859     0.00328449     0.00115823
    111      4      H           0.00006469    -0.00027514     0.00034108
    112      4      H          -0.00013694     0.00005000     0.00023828
    113      4      H          -0.00022184    -0.00043674     0.00013759
    114      4      H          -0.00052433    -0.00036837     0.00037639
    115      4      H          -0.00107661    -0.00253605     0.00168608
    116      4      H          -0.00105835     0.00006388    -0.00001159
    117      4      H           0.00186958    -0.00288356    -0.00132823
    118      4      H           0.00003651    -0.00096100    -0.00080534
    119      4      H          -0.00042225    -0.00021091     0.00000761
    120      4      H           0.00102573     0.00069447     0.00013120
[...]
 flops   421 x    32 x    62          37353006080       0.0%    100.0%      0.0%     
 flops    96 x    32 x    50          38264832000       0.0%    100.0%      0.0%     
 flops     5 x    32 x     5          38874880000       0.0%    100.0%      0.0%     
 flops     5 x    13 x    32          40759347200       0.0%    100.0%      0.0%     
 flops    13 x     5 x    32          40759347200       0.0%    100.0%      0.0%     
 flops   104 x    32 x    50          41453568000       0.0%    100.0%      0.0%     
 flops   390 x    32 x    50          41857920000       0.0%    100.0%      0.0%     
 flops    64 x    32 x    62          42176348160       0.0%    100.0%      0.0%     
 flops    14 x    32 x     5          44529408000       0.0%    100.0%      0.0%     
 flops     5 x    32 x    14          44529408000       0.0%    100.0%      0.0%     
 flops   313 x    32 x    57          44679573120       0.0%    100.0%      0.0%     
 flops   421 x    32 x    50          45185088000       0.0%    100.0%      0.0%     
 flops    14 x    13 x    32          46687979520       0.0%    100.0%      0.0%     
 flops    13 x    14 x    32          46687979520       0.0%    100.0%      0.0%     
 flops   336 x    32 x    57          47962736640       0.0%    100.0%      0.0%     
 flops    96 x    32 x    57          50892226560       0.0%    100.0%      0.0%     
 flops    14 x    32 x    14          51006412800       0.0%    100.0%      0.0%     
 flops    64 x    32 x    50          51019776000       0.0%    100.0%      0.0%     
 flops   104 x    32 x    57          55133245440       0.0%    100.0%      0.0%     
 flops   390 x    32 x    57          55671033600       0.0%    100.0%      0.0%     
 flops    96 x    32 x    32          59395276800       0.0%    100.0%      0.0%     
 flops   421 x    32 x    57          60096167040       0.0%    100.0%      0.0%     
 flops   104 x    32 x    32          64344883200       0.0%    100.0%      0.0%     
 flops    64 x    32 x    57          67856302080       0.0%    100.0%      0.0%     
 flops    64 x    32 x    32          79193702400       0.0%    100.0%      0.0%     
 flops   313 x    32 x    32         164807270400       0.0%    100.0%      0.0%     
 flops     5 x    32 x    13         174583552000       0.0%    100.0%      0.0%     
 flops    13 x    32 x     5         174583552000       0.0%    100.0%      0.0%     
 flops   336 x    32 x    32         176917708800       0.0%    100.0%      0.0%     
 flops    13 x    13 x    32         185455029760       0.0%    100.0%      0.0%     
 flops    14 x    32 x    13         199977523200       0.0%    100.0%      0.0%     
 flops    13 x    32 x    14         199977523200       0.0%    100.0%      0.0%     
 flops   390 x    32 x    32         205350912000       0.0%    100.0%      0.0%     
 flops   421 x    32 x    32         221673676800       0.0%    100.0%      0.0%     
 flops    13 x    32 x    13         784038860800       0.0%    100.0%      0.0%     
 flops inhomo. stacks                666628728480     100.0%      0.0%      0.0%
 flops total                         4.786465E+12      13.9%     86.1%      0.0%
 flops max/rank                    224.711548E+09      15.0%     85.0%      0.0%
 matmuls inhomo. stacks                   1043460     100.0%      0.0%      0.0%
 matmuls total                          330495550       0.3%     99.7%      0.0%
 number of processed stacks              21471340       4.9%     95.1%      0.0%
 average stack size                                     1.0      16.1       0.0
 marketing flops                     5.049044E+12
 -------------------------------------------------------------------------------
 # multiplications                          10132
 max memory usage/rank             535.629824E+06
 # max total images/rank                       13
 # max 3D layers                                1
 # MPI messages exchanged                20020832
 MPI messages size (bytes):
  total size                         1.365152E+12
  min size                           0.000000E+00
  max size                         381.680000E+03
  average size                      68.186555E+03
 MPI breakdown and total messages size (bytes):
             size <=      128             9591212                        0
       128 < size <=     8192              793360               5233753088
      8192 < size <=    32768             1314810              18314918400
     32768 < size <=   131072             4368750             269697312000
    131072 < size <=  4194304             3952700            1071324640000
   4194304 < size <= 16777216                   0                        0
  16777216 < size                               0                        0
 -------------------------------------------------------------------------------

 *** WARNING in dbcsr_mm.F:301 :: Using a non-square number of MPI ranks ***
 *** might lead to poor performance. Used ranks: 52 Suggested: 49 100    ***

 -------------------------------------------------------------------------------
 -                                                                             -
 -                      DBCSR MESSAGE PASSING PERFORMANCE                      -
 -                                                                             -
 -------------------------------------------------------------------------------
 ROUTINE             CALLS      AVE VOLUME [Bytes]
 MP_Bcast              113                     12.
 MP_Allreduce        54625                      9.
 MP_Alltoall         34777                  23488.
 MP_ISend           912270                  31501.
 MP_IRecv           882222                  31270.
 -------------------------------------------------------------------------------

 -------------------------------------------------------------------------------
 -                                                                             -
 -                                DBM STATISTICS                               -
 -                                                                             -
 -------------------------------------------------------------------------------
    M  x    N  x    K                                          COUNT     PERCENT
 -------------------------------------------------------------------------------

 -------------------------------------------------------------------------------
 -                                                                             -
 -                                GRID STATISTICS                              -
 -                                                                             -
 -------------------------------------------------------------------------------
 LP    KERNEL             BACKEND                              COUNT     PERCENT
 3     collocate general  CPU                               58621196      22.39%
 4     collocate general  CPU                               56206798      21.47%
 3     integrate general  CPU                               55672016      21.27%
 4     integrate general  CPU                               53179736      20.31%
 2     collocate general  CPU                               15976949       6.10%
 2     integrate general  CPU                               15116481       5.77%
 6     integrate general  CPU                                3052051       1.17%
 7     integrate general  CPU                                2926168       1.12%
 5     integrate general  CPU                                 831781       0.32%
 0     collocate general  CPU                                 215280       0.08%
 -------------------------------------------------------------------------------

 MEMORY| Estimated peak process memory [MiB]                                 511

 -------------------------------------------------------------------------------
 -                                                                             -
 -                         MESSAGE PASSING PERFORMANCE                         -
 -                                                                             -
 -------------------------------------------------------------------------------

 ROUTINE             CALLS      AVE VOLUME [Bytes]
 MP_Group                4
 MP_Bcast             4283                 178216.
 MP_Allreduce        14385                    376.
 MP_Sync                79
 MP_Alltoall         13217                2606534.
 MP_SendRecv         91137                  64886.
 MP_ISendRecv        85068                  68832.
 MP_Wait            164764
 MP_comm_split          46
 MP_ISend            72664                 237201.
 MP_IRecv            72664                 237200.
 -------------------------------------------------------------------------------


 -------------------------------------------------------------------------------
 -                                                                             -
 -                           R E F E R E N C E S                               -
 -                                                                             -
 -------------------------------------------------------------------------------
 
 CP2K version 2024.3, the CP2K developers group (2024).
 CP2K is freely available from https://www.cp2k.org/ .
 
 T. D. Kuehne, M. Iannuzzi, M. Del Ben, V. V. Rybkin, P. Seewald, F. Stein, T. 
 Laino, R. Z. Khaliullin, O. Schuett, F. Schiffmann, D. Golze, J. Wilhelm, S. 
 Chulkov, M. H. Bani-Hashemian, V. Weber, U. Borstnik, M. Taillefumier, A. S. 
 Jakobovits, A. Lazzaro, H. Pabst, T. Mueller, R. Schade, M. Guidon, S. 
 Andermatt, N. Holmberg, G. K. Schenter, A. Hehn, A. Bussy, F. Belleflamme, G. 
 Tabacchi, A. Gloess, M. Lass, I. Bethune, C. J. Mundy, C. Plessl, M. Watkins, 
 J. VandeVondele, M. Krack, J. Hutter.
 J. Chem. Phys. 152, 194103 (2020).
 CP2K: An electronic structure and molecular dynamics software package - 
 Quickstep: Efficient and accurate electronic structure calculations.
 https://doi.org/10.1063/5.0007045

 L. Goerigk, A. Hansen, C. Bauer, S. Ehrlich, A. Najibi, S. Grimme.
 Phys. Chem. Chem. Phys. 19, 32184-32215 (2017).
 A look at the density functional theory zoo with the advanced GMTKN55 database 
 for general main group thermochemistry, kinetics and noncovalent interactions.
 https://doi.org/10.1039/C7CP04913G

 O. Schuett, P. Messmer, J. Hutter, J. VandeVondele.
 Electronic Structure Calculations on Graphics Processing Units, 173-190 (2016).
 GPU-Accelerated Sparse Matrix-Matrix Multiplication for Linear Scaling Density 
 Functional Theory.
 https://doi.org/10.1002/9781118670712.ch8

 A. Heinecke, G. Henry, M. Hutchinson, H. Pabst.
 Proceedings of Intl. Supercomputing Conference, 981-991 (2016).
 LIBXSMM: Accelerating Small Matrix Multiplications by Runtime Code Generation.
 https://doi.org/10.1109/SC.2016.83

 J. Hutter, M. Iannuzzi, F. Schiffmann, J. VandeVondele.
 WIREs Comput Mol Sci. 4, 15-25 (2014).
 CP2K: atomistic simulations of condensed matter systems.
 https://doi.org/10.1002/wcms.1159

 U. Borstnik, J. VandeVondele, V. Weber, J. Hutter.
 Parallel Comput. 40, 47-58 (2014).
 Sparse matrix multiplication: The distributed block-compressed sparse row 
 library.
 https://doi.org/10.1016/j.parco.2014.03.012

 A. Marek, V. Blum, R. Johanni, V. Havu, B. Lang, T. Auckenthaler, A. Heinecke, 
 H. Bungartz, H. Lederer.
 J. Phys. Condens. Matter 26, 213201 (2014).
 The ELPA library: scalable parallel eigenvalue solutions for electronic 
 structure theory and computational science.
 https://doi.org/10.1088/0953-8984/26/21/213201

 S. Grimme, S. Ehrlich, L. Goerigk.
 J. Comput. Chem. 32, 1456 (2011).
 Effect of the damping function in dispersion corrected density functional 
 theory.
 https://doi.org/10.1002/jcc.21759

 S. Grimme, J. Antony, S. Ehrlich, H. Krieg.
 J. Chem. Phys. 132, 154104 (2010).
 A consistent and accurate ab initio parametrization of density functional 
 dispersion correction (DFT-D) for the 94 elements H-Pu.
 https://doi.org/10.1063/1.3382344

 J. P. Perdew, A. Ruzsinszky, G. I. Csonka, O. A. Vydrov, G. E. Scuseria, L. A. 
 Constantin, X. Zhou, K. Burke.
 Phys. Rev. Lett. 100, 136406-136409 (2008).
 Restoring the Density-Gradient Expansion for Exchange in Solids and Surfaces.
 https://doi.org/10.1103/PhysRevLett.100.136406

 J. VandeVondele, J. Hutter.
 J. Chem. Phys. 127, 114105 (2007).
 Gaussian basis sets for accurate calculations on molecular systems in gas and 
 condensed phases.
 https://doi.org/10.1063/1.2770708

 T. D. Kühne, M. Krack, F. R. Mohamed, M. Parrinello.
 Phys. Rev. Lett. 98, 066401 (2007).
 Efficient and accurate Car-Parrinello-like approach to Born-Oppenheimer 
 molecular dynamics.
 https://doi.org/10.1103/PhysRevLett.98.066401

 J. VandeVondele, M. Krack, F. Mohamed, M. Parrinello, T. Chassaing, J. Hutter.
 Comput. Phys. Commun. 167, 103-128 (2005).
 QUICKSTEP: Fast and accurate density functional calculations using a mixed 
 Gaussian and plane waves approach.
 https://doi.org/10.1016/j.cpc.2004.12.014

 M. Krack.
 Theor. Chem. Acc. 114, 145-152 (2005).
 Pseudopotentials for H to Kr optimized for gradient-corrected 
 exchange-correlation functionals.
 https://doi.org/10.1007/s00214-005-0655-y

 M. Frigo, S. G. Johnson.
 Proc. IEEE 93, 216-231 (2005).
 The design and implementation of FFTW3.
 https://doi.org/10.1109/JPROC.2004.840301

 J. Kolafa.
 J. Comput. Chem. 25, 335-342 (2004).
 Time-reversible always stable predictor-corrector method for molecular dynamics 
 of polarizable molecules.
 https://doi.org/10.1002/jcc.10385

 J. VandeVondele, J. Hutter.
 J. Chem. Phys. 118, 4365-4369 (2003).
 An efficient orbital transformation method for electronic structure 
 calculations.
 https://doi.org/10.1063/1.1543154

 C. Hartwigsen, S. Goedecker, J. Hutter.
 Phys. Rev. B 58, 3641-3662 (1998).
 Relativistic separable dual-space Gaussian pseudopotentials from H to Rn.
 https://doi.org/10.1103/PhysRevB.58.3641

 G. Lippert, J. Hutter, M. Parrinello.
 Mol. Phys. 92, 477-487 (1997).
 A hybrid Gaussian and plane wave density functional scheme.
 https://doi.org/10.1080/002689797170220

 S. Goedecker, M. Teter, J. Hutter.
 Phys. Rev. B 54, 1703-1710 (1996).
 Separable dual-space Gaussian pseudopotentials.
 https://doi.org/10.1103/PhysRevB.54.1703

 J. P. Perdew, K. Burke, M. Ernzerhof.
 Phys. Rev. Lett. 77, 3865-3868 (1996).
 Generalized gradient approximation made simple.
 https://doi.org/10.1103/PhysRevLett.77.3865


 -------------------------------------------------------------------------------
 -                                                                             -
 -                                T I M I N G                                  -
 -                                                                             -
 -------------------------------------------------------------------------------
 SUBROUTINE                       CALLS  ASD         SELF TIME        TOTAL TIME
                                MAXIMUM       AVERAGE  MAXIMUM  AVERAGE  MAXIMUM
 CP2K                                 1  1.0    0.012    0.015 1040.503 1040.505
 cp_geo_opt                           1  2.0    0.000    0.000 1040.164 1040.165
 geoopt_bfgs                          1  3.0    0.012    0.015 1040.164 1040.165
 cp_eval_at                          30  4.0    0.005    0.018 1039.002 1039.012
 qs_forces                           29  5.0    0.007    0.007 1016.404 1016.406
 qs_energies                         30  6.0    0.003    0.003  960.450  960.469
 scf_env_do_scf                      30  7.0    0.002    0.003  922.418  922.421
 scf_env_do_scf_inner_loop          527  8.0    0.013    0.063  891.201  891.339
 rebuild_ks_matrix                  556  9.8    0.003    0.003  548.224  548.748
 qs_ks_build_kohn_sham_matrix       556 10.8    0.104    0.112  548.221  548.746
 qs_ks_update_qs_env                559  9.0    0.005    0.006  490.352  490.748
 sum_up_and_integrate               556 11.8    0.014    0.025  417.504  417.840
 integrate_v_rspace                 556 12.8    0.026    0.037  417.081  417.531
 qs_rho_update_rho_low              557  9.0    0.003    0.004  408.115  408.478
 calculate_rho_elec                 557 10.0    0.285    0.326  408.112  408.475
 grid_collocate_task_list           557 11.0  334.885  347.706  334.885  347.706
 grid_integrate_task_list           556 13.8  331.776  342.121  331.776  342.121
 fft_wrap_pw1pw2                   9487 14.2    0.405    0.466  117.481  123.536
 fft_wrap_pw1pw2_250               6148 15.6    5.942    6.212  109.194  114.395
 qs_vxc_create                      556 11.8    0.029    0.042   97.509   99.527
 xc_vxc_pw_create                   556 12.8    2.464    2.918   97.480   99.500
 fft3d_ps                          9487 16.2   45.956   51.693   90.337   98.070
 density_rs2pw                      557 11.0    0.056    0.073   71.592   87.697
 xc_pw_derive                      3336 14.8    0.092    0.124   70.467   77.514
 potential_pw2rs                    556 13.8    0.071    0.083   66.024   66.284
 transfer_rs2pw                    2258 12.0    0.042    0.064   48.660   64.113
 mp_waitany                       72664 15.3   43.457   59.535   43.457   59.535
 qs_ks_update_qs_env_forces          29  6.0    0.000    0.000   58.160   58.407
 transfer_rs2pw_250                 587 12.9    8.673   10.663   41.235   56.621
 transfer_pw2rs                    2253 14.8    0.040    0.053   53.935   54.084
 mp_alltoall_z22v                  9487 18.2   30.450   52.438   30.450   52.438
 xc_pw_divergence                   556 13.8    0.046    0.057   47.292   51.855
 dbcsr_multiply_generic           10132 13.9    0.551    0.627   48.695   50.130
 xc_rho_set_and_dset_create         556 13.8    1.266    1.542   46.089   47.065
 transfer_pw2rs_250                 585 15.6   21.227   21.924   43.074   44.017
 qs_scf_new_mos                     527  9.0    0.003    0.005   43.172   43.596
 qs_scf_loop_do_ot                  527 10.0    0.003    0.005   43.169   43.593
 ot_scf_mini                        527 11.0    0.016    0.018   40.268   40.733
 yz_to_x                           3368 17.4    4.853    6.134   20.906   33.534
 mp_alltoall_d11v                  7709 15.1   19.858   33.486   19.858   33.486
 rs_gather_matrices                 556 13.8    0.110    0.170   19.207   33.054
 init_scf_loop                       32  8.0    0.001    0.001   31.044   31.046
 multiply_cannon                  10132 14.9    1.159    1.253   26.030   27.686
 ot_mini                            527 12.0    0.004    0.004   26.900   27.374
 x_to_yz                           3893 17.4    6.904    8.032   20.901   25.507
 init_scf_run                        30  7.0    0.001    0.002   24.510   24.513
 scf_env_initial_rho_setup           30  8.0    0.000    0.001   24.509   24.512
 mp_waitall_1                   1388996 17.9   16.551   24.082   16.551   24.082
 wfi_extrapolate                     30  9.0    0.003    0.004   23.711   23.711
 multiply_cannon_loop             10132 15.9    1.451    1.867   21.280   22.771
 qs_ot_get_derivative               527 13.0    0.005    0.006   21.057   21.532
 -------------------------------------------------------------------------------

 The number of warnings for this run is : 1
 
 -------------------------------------------------------------------------------
  **** **** ******  **  PROGRAM ENDED AT                 2025-01-16 08:05:39.752
 ***** ** ***  *** **   PROGRAM RAN ON                               ubuntu-GPU2
 **    ****   ******    PROGRAM RAN BY                                       zkm
 ***** **    ** ** **   PROGRAM PROCESS ID                               3481446
  **** **  *******  **  PROGRAM STOPPED IN /home/zkm/CP2K/Generate_dataset/Jenni
                                           te/Elastic/elastic_cp2k/example/epsil
                                           onyz/neg
