     138
 i =        1, E =     -1759.5438179653
 Ca        -0.7409987811        1.4595239967        3.8357359424
 Ca         2.0468236023        4.4856733894        3.8234573122
 Ca        -1.9380766673        4.9251753492        3.9690016280
 Ca         3.3463631144        1.0719101900        3.7444905684
 Si         5.9506756778        5.9317889523        2.0432430159
 Si         6.6046375255        0.6397837049        3.9664556292
 Si         5.5048885240        3.5796671737        3.9804194802
  O         9.8744568880       -0.5129064163        2.5963372094
  O         0.1405963769        5.7579875969        3.2429364670
  O         5.3415405190       -0.2814061157        4.4552116294
  O         7.7945640012        0.8446715549        5.1158177574
  O         7.2497379715        0.1447113526        2.5708467075
  O         5.4736359068        4.4491897224        2.6221819284
  O         5.9241249225        2.0594710268        3.4862901938
  O         5.8578356673        5.7930569475        0.4337691609
  O         3.9721309621        3.3406091291        4.5219921647
  O         6.5969571871        4.1355035173        5.0596791678
  O         1.3754012312        2.3108792849        3.1930248733
  O         8.8107480860        3.0917986881        2.4198631674
  O         4.0477738800        0.9734299266        1.3803526969
  O         4.1254151076       -1.0564702529        9.0595494508
  O         8.0805804830       -1.5953995902        9.9050064898
  O         5.7253748139        0.9107722841       10.1562517775
 Ca         7.5504168888        2.6517836692        6.6676823910
 Ca         4.7711857110       -0.3685067692        6.7034999481
 Ca         8.7539536100       -0.7832945533        6.5620036370
 Ca         3.4623127463        3.0391151639        6.7917400382
 Si         0.8706771914       -1.8054008690        8.4983009162
 Si         0.2227222913        3.4747358752        6.5647403527
 Si         1.3129849085        0.5436363186        6.5509515835
  O        -3.0577078715        4.6273441078        7.9272521799
  O         6.6785225485       -1.6383077595        7.2825818159
  O         1.4775260495        4.4013263125        6.0689535452
  O        -0.9802907043        3.2752865052        5.4042052294
  O        -0.4317347174        3.9722271816        7.9525260582
  O         1.3459646092       -0.3307894664        7.9017321922
  O         0.8902676265        2.0609675604        7.0348100266
  O         0.9629614761       -1.6832742796       10.0836690506
  O         2.8485123277        0.7773930854        6.0005209613
  O         0.2221354800       -0.0189375266        5.4639633873
  O         5.4455173232        1.8092289383        7.3326076861
  O        -1.9962631500        1.0193870760        8.1071103366
  O         2.7566094247        3.1403266942        9.1490205086
  O         2.6935454077        5.1757114778        1.4672684108
  O        -1.2624599635        5.7132707501        0.6205026355
  O         1.0915616424        3.2130054426        0.3732544143
 Ca        -1.2161426696        3.4332507401        0.0022105433
 Ca        -3.1782342871        8.3255004050        3.8357293239
 Ca        -0.3904237766       11.3516386756        3.8234712429
 Ca        -4.3753226395       11.7911457651        3.9690034838
 Ca         0.9090753792        7.9369291424        3.7445178175
 Si         3.5133953541       12.7976902001        2.0432734891
 Si         4.1674202219        7.5057244353        3.9664748130
 Si         3.0676556414       10.4450973500        3.9803756824
  O         7.4371769927        6.3530397704        2.5963289608
  O        -2.2966477304       12.6239692690        3.2429387458
  O         2.9042982719        6.5845585748        4.4551911578
  O         5.3573067347        7.7106403125        5.1158011101
  O         4.8124907576        7.0106526848        2.5708445920
  O         3.0364037586       11.3150539338        2.6223051912
  O         3.4869378803        8.9252380983        3.4862266293
  O         3.4205808361       12.6590334584        0.4337591144
  O         1.5348695829       10.2065235766        4.5220078547
  O         4.1596652270       11.0014036484        5.0596383367
  O        -1.0618409484        9.1768324950        3.1930265305
  O         6.3735014653        9.9577614562        2.4198641160
  O         1.6106485801        7.8395395109        1.3805790444
  O         1.6881706430        5.8095032130        9.0595507841
  O         5.6433526041        5.2706059524        9.9049775005
  O         3.2882675568        7.7767835498       10.1561828203
 Ca         5.1131694567        9.5177668678        6.6676481901
 Ca         2.3339324924        6.4974485585        6.7035130243
 Ca         6.3167100423        6.0826784027        6.5620178390
 Ca         1.0250779248        9.9050741460        6.7917483478
 Si        -1.5666679539        5.0606537831        8.4983003474
 Si        -2.2144218680       10.3399002580        6.5647170397
 Si        -1.1242034518        7.4093860836        6.5509016173
  O        -5.4949741181       11.4932995284        7.9272430635
  O         4.2414024359        5.2275521540        7.2824528456
  O        -0.9598387725       11.2671404502        6.0690274215
  O        -3.4175337646       10.1412059775        5.4041935585
  O        -2.8690544288       10.8373379236        7.9525813215
  O        -1.0912881697        6.5351669870        7.9017400162
  O        -1.5470327197        8.9261961344        7.0348671116
  O        -1.4741880554        5.1824666598       10.0835787608
  O         0.4112809353        7.6433447923        6.0005058102
  O        -2.2151142300        6.8470174554        5.4639446770
  O         3.0081844718        8.6742984501        7.3327342818
  O        -4.4335122566        7.8854894399        8.1070860359
  O         0.3193680972       10.0063037930        9.1490044116
  O         0.2562594984       12.0406700412        1.4672476950
  O        -3.6997584794       12.5792223480        0.6205693934
  O        -1.3457049962       10.0789716514        0.3732527936
 Ca        -3.6533928639       10.2992515852        0.0022241640
  H         3.3965545600        0.4466000044        1.8712438988
  H         4.4484577191        1.4149211890        2.1405990840
  H         4.5514118876       -0.2653720643        8.6950013684
  H         4.0360195481       -1.5414377118        8.2268408694
  H         7.4969130930       -1.0427238557       10.4368729902
  H         8.4535798445       -0.9231544474        9.3011913312
  H         5.0137205024        2.1790943131       10.6201648566
  H         6.5187457851        1.2477715641        9.7322527180
  H         3.3831413579        3.1438823773        9.9627208431
  H         3.2423254161        3.6272129985        8.4898342138
  H         2.2379604391        4.3679004822        1.7715687982
  H         2.7456657174        5.6107196393        2.3267364515
  H        -1.6040266953        5.0287576949        1.2335012508
  H        -0.6628476648        5.1717011460        0.0907038867
  H         0.3052496157        2.8332336120        0.7731810406
  H         1.9118025762        1.9346953321       -0.0458443463
  H         0.9593250239        7.3123478206        1.8710189686
  H         2.0110019413        8.2809006459        2.1411169627
  H         2.1143745412        6.6006312343        8.6952387739
  H         1.5987743282        5.3248013434        8.2267199799
  H         5.0597154317        5.8232541909       10.4369269915
  H         6.0162637406        5.9428676106        9.3011008058
  H         2.5765103654        9.0450658405       10.6203870467
  H         4.0814788268        8.1137667603        9.7318811740
  H         0.9457649293       10.0096721460        9.9628603283
  H         0.8050867849       10.4934109495        8.4899464378
  H        -0.1987624312       11.2323478273        1.7712833908
  H         0.3071533843       12.4758905849        2.3265760180
  H        -4.0405946646       11.8947516890        1.2340384092
  H        -3.0999424418       12.0377958481        0.0907912768
  H        -2.1319801136        9.6991648096        0.7731959879
  H        -0.5254347081        8.8002027220       -0.0460605459
  H        -0.4380294931        6.2682010837        3.8422879954
  H         0.8332964590        2.7185287523        3.8936260928
  H         9.0065654311        3.1434087858        3.3648515339
  H         7.2831838940       -2.1420779453        6.7060496497
  H         5.9995643196        1.3864040071        6.6509694996
  H        -2.0906994603        1.9711359090        8.0242670922
  H        -2.8754139562       13.1342998406        3.8420369850
  H        -1.6041783686        9.5846847864        3.8933385371
  H         6.5689947912       10.0092989586        3.3649209131
  H         4.8462091811        4.7235437655        6.7063240796
  H         3.5627011539        8.2518059909        6.6512577354
  H        -4.5291079672        8.8371327664        8.0249365603
     138
 i =        2, E =     -1759.8741872625
 Ca        -0.7498892053        1.3738547059        3.8484725038
 Ca         2.0841707123        4.5453868370        3.9084365800
 Ca        -1.9851666501        5.0316485147        4.0072190866
 Ca         3.3567624978        1.1391798791        3.8643626522
 Si         6.0448401883        5.9900911614        2.0598710857
 Si         6.6761112763        0.6737750899        4.0276822468
 Si         5.5467747806        3.6261027805        4.0058840880
  O         9.8764629646       -0.5209217639        2.6488080597
  O         0.1778592660        5.8414489385        3.2869202640
  O         5.3552924509       -0.2777222183        4.4952158605
  O         7.7859349860        0.8677850642        5.1340802039
  O         7.3059790179        0.1354744158        2.5690795381
  O         5.5242598445        4.5190242562        2.6537855254
  O         5.9480111533        2.0791769595        3.5272956701
  O         5.9114778775        5.8694754788        0.4431522904
  O         4.0022665204        3.3933165995        4.5792978676
  O         6.6442635628        4.2021371721        5.1203884771
  O         1.4027228642        2.3436371004        3.2486262262
  O         8.8793008615        3.1418577583        2.4330437447
  O         4.0631117948        0.9983086399        1.4465696027
  O         4.1499371190       -1.0383019591        9.0809276196
  O         8.1333663711       -1.5699545604        9.9914400005
  O         5.7876642627        0.9329010185       10.2790593660
 Ca         7.5860983359        2.7853412738        6.6671357146
 Ca         4.7903672441       -0.3621025601        6.7102277649
 Ca         8.8454273106       -0.7364376382        6.6335584508
 Ca         3.4758160838        3.0151581073        6.7988982074
 Si         0.8328271071       -1.7785439240        8.5937812782
 Si         0.2215497909        3.5035174079        6.6006269700
 Si         1.3267244829        0.5780455136        6.6246633921
  O        -3.0026857666        4.6939023422        7.9561553593
  O         6.6975085348       -1.6464096241        7.3244084639
  O         1.5209995749        4.4730770757        6.1099940836
  O        -0.9237077755        3.3280047114        5.4558086320
  O        -0.4386560740        4.0471677821        8.0357446122
  O         1.3540966565       -0.3287913596        7.9497468303
  O         0.9130586578        2.1090240057        7.0662223038
  O         0.9658195783       -1.6991718519       10.1595356583
  O         2.8790188063        0.7943733972        6.0206059367
  O         0.2370483764       -0.0186503958        5.4844919743
  O         5.4798208264        1.8490795455        7.3642265362
  O        -2.0301427348        1.0189983438        8.1793574895
  O         2.7655222198        3.1557351227        9.1966322727
  O         2.7270763245        5.2217816493        1.5341656154
  O        -1.2586253890        5.7553115088        0.6205343304
  O         1.0824748854        3.2800983408        0.3522617939
 Ca        -1.1938549050        3.4729561614        0.0099107389
 Ca        -3.1604711929        8.3190499283        3.8484455968
 Ca        -0.3264658560       11.4905109407        3.9085030245
 Ca        -4.3957545494       11.9768184255        4.0072480113
 Ca         0.9460236178        8.0836083740        3.8644557409
 Si         3.6341301741       12.9350055567        2.0599555514
 Si         4.2655989633        7.6187906893        4.0277269296
 Si         3.1361445363       10.5716002701        4.0058245371
  O         7.4657703754        6.4241738045        2.6487861468
  O        -2.2327318122       12.7866643560        3.2869143173
  O         2.9446728379        6.6673900443        4.4951565427
  O         5.3753069836        7.8129526160        5.1340659256
  O         4.8953823287        7.0805223554        2.5690601795
  O         3.1136945541       11.4639770271        2.6540327335
  O         3.5375077099        9.0239178348        3.5271075617
  O         3.5008262635       12.8146334924        0.4431771541
  O         1.5916490602       10.3382936793        4.5793410885
  O         4.2335333904       11.1470840798        5.1203011363
  O        -1.0078768605        9.2887525635        3.2486344482
  O         6.4686878870       10.0870154464        2.4330427084
  O         1.6526581857        7.9437774647        1.4470444816
  O         1.7393362165        5.9069009366        9.0809463438
  O         5.7227821452        5.3753109291        9.9913897955
  O         3.3773059804        7.8781118017       10.2789545564
 Ca         5.1755089418        9.7305570171        6.6670123328
 Ca         2.3797457437        6.5830055050        6.7102680956
 Ca         6.4347990166        6.2087506904        6.6335979932
 Ca         1.0652462021        9.9602725209        6.7989371066
 Si        -1.5781053764        5.1668302062        8.5936947944
 Si        -2.1889439852       10.4484171600        6.6006689786
 Si        -1.0837128815        7.5226075160        6.6244827419
  O        -5.4133502634       11.6390083676        7.9561340252
  O         4.2870849653        5.2985891976        7.3242021158
  O        -0.8898912913       11.4177903393        6.1102131008
  O        -3.3343065836       10.2729916782        5.4557655626
  O        -2.8495294896       10.9919280895        8.0359281539
  O        -1.0565444368        6.6163257661        7.9498099661
  O        -1.4976819314        9.0540445556        7.0664321905
  O        -1.4445877943        5.2455199910       10.1594494460
  O         0.4684461474        7.7394461640        6.0205577164
  O        -2.1735811856        6.9264317252        5.4844068461
  O         3.0690887977        8.7935188172        7.3644558863
  O        -4.4407349087        7.9643174496        8.1793047621
  O         0.3549151502       10.1009415467        9.1965778434
  O         0.3163452755       12.1660954818        1.5340220769
  O        -3.6693218158       12.7004251769        0.6206250825
  O        -1.3281748459       10.2252235280        0.3522335257
 Ca        -3.6045278765       10.4182537934        0.0099509536
  H         3.3796815825        0.3918184111        1.7963992625
  H         4.5652423060        1.4821329583        2.1087570804
  H         4.5937404042       -0.1930380380        8.8755678926
  H         4.0081815728       -1.6175269659        8.3330223666
  H         7.4472405110       -1.1303248425       10.5389545483
  H         8.5204216900       -0.9568772803        9.3364489641
  H         5.0704548001        2.2032780584       10.6961425249
  H         6.4937827984        1.3443041035        9.7339094049
  H         3.4250967367        3.2063582738       10.0469808283
  H         3.3056697986        3.7727526539        8.6510399490
  H         2.2518450896        4.3730195118        1.6777116150
  H         2.8340267019        5.7653234778        2.3108619309
  H        -1.6090929233        5.1330708360        1.2923610370
  H        -0.5537404844        5.3313624173        0.0796574007
  H         0.3876578848        2.8027007786        0.8571009504
  H         1.9163822361        1.9713039440       -0.0458071212
  H         0.9691536671        7.3368582080        1.7961272135
  H         2.1542869610        8.4272222649        2.1090037628
  H         2.1833491535        6.7521503112        8.8758096190
  H         1.5975458972        5.3278808312        8.3328810408
  H         5.0366984882        5.8148539819       10.5389920295
  H         6.1096839772        5.9883198434        9.3364109756
  H         2.6598911640        9.1484470156       10.6963046867
  H         4.0830696769        8.2894423457        9.7335953673
  H         1.0143548914       10.1513669029       10.0470689560
  H         0.8950600689       10.7181372303        8.6511786329
  H        -0.1581607012       11.3167467146        1.6774466573
  H         0.4220891234       12.7098614810        2.3107570606
  H        -4.0189585606       12.0782853936        1.2928428285
  H        -2.9642097813       12.2766400860        0.0797682988
  H        -2.0229697947        9.7478396694        0.8571132744
  H        -0.4943349599        8.9163289601       -0.0458250905
  H        -0.3931422728        6.3646489526        3.8900071206
  H         0.8670654585        2.7697050047        3.9503112569
  H         9.0611321188        3.1815289823        3.3783775020
  H         7.2947863694       -2.1724073016        6.7498584095
  H         6.0264732095        1.4033484008        6.6865564356
  H        -2.0082286543        2.0037556703        8.1821426265
  H        -2.8038620147       13.3100081835        3.8897464449
  H        -1.5437723570        9.7150854643        3.9499871066
  H         6.6501555718       10.1266036669        3.3784623203
  H         4.8843788619        4.7724648092        6.7502506215
  H         3.6163627388        8.3478964779        6.6867817195
  H        -4.4201235195        8.9489335536        8.1828918495
     138
 i =        3, E =     -1759.9885319183
 Ca        -0.7485479061        1.3195576654        3.8475022400
 Ca         2.1076333103        4.5803199984        3.9495280826
 Ca        -2.0036283495        5.0856315310        4.0248416163
 Ca         3.3659671424        1.1766865561        3.9222227490
 Si         6.0667594292        6.0140283670        2.0582360424
 Si         6.6811561225        0.6732122819        4.0279152216
 Si         5.5631316953        3.6465669940        4.0202893314
  O         9.8734084969       -0.5291222365        2.6829540067
  O         0.2002053814        5.8866493722        3.3143090340
  O         5.3707299815       -0.2695396105        4.5089131589
  O         7.7926957208        0.8813778098        5.1575885657
  O         7.3266135699        0.1308557776        2.5762142963
  O         5.5494806446        4.5529588856        2.6746281606
  O         5.9542325407        2.0891533135        3.5510866869
  O         5.9377729544        5.9000962579        0.4473556068
  O         4.0259306165        3.4184768028        4.6072019567
  O         6.6581909432        4.2338268929        5.1434909916
  O         1.4189162878        2.3582095395        3.2854415590
  O         8.9049764583        3.1678226496        2.4355942827
  O         4.0607263405        1.0112897361        1.4774716404
  O         4.1692653834       -1.0277912210        9.0917382794
  O         8.1615292072       -1.5642818003       10.0397119336
  O         5.8375010828        0.9455409782       10.3357681556
 Ca         7.6036435034        2.8583241733        6.6629441786
 Ca         4.8015500446       -0.3712517564        6.7097606912
 Ca         8.8898010279       -0.7103098747        6.6726954386
 Ca         3.4815194807        2.9915056662        6.8039738646
 Si         0.8335915333       -1.7743806385        8.6281915907
 Si         0.2382403989        3.5346740170        6.6287023981
 Si         1.3439437305        0.5886990036        6.6488332424
  O        -2.9578699095        4.7260419114        7.9569296116
  O         6.7077499761       -1.6592996329        7.3342812732
  O         1.5398365184        4.4954840810        6.1325269831
  O        -0.8899159716        3.3471543822        5.4689593872
  O        -0.4303908423        4.0785171748        8.0655515588
  O         1.3645147220       -0.3329145696        7.9657514245
  O         0.9362384792        2.1240011429        7.0756991453
  O         0.9738812338       -1.7036444569       10.2036594996
  O         2.8878938720        0.7977339762        6.0312098290
  O         0.2604219868       -0.0197288886        5.4950467680
  O         5.4991314006        1.8645242658        7.3667726703
  O        -2.0416696156        1.0207831671        8.2093523814
  O         2.8018619283        3.1645782605        9.2094557072
  O         2.7438246677        5.2369026795        1.5630924628
  O        -1.2529718855        5.7766050434        0.6110340138
  O         1.0640528352        3.3111742422        0.3434975760
 Ca        -1.1801492567        3.4926722237        0.0154693324
 Ca        -3.1401903276        8.3062730291        3.8474661303
 Ca        -0.2840937385       11.5669128393        3.9496358401
 Ca        -4.3952543770       12.0723169635        4.0249017964
 Ca         0.9741408977        8.1627786039        3.9223264801
 Si         3.6749884051       13.0004493505        2.0583425712
 Si         4.2895451742        7.6597081431        4.0279323026
 Si         3.1714044344       10.6336282315        4.0202976131
  O         7.4816797837        6.4574918706        2.6829426918
  O        -2.1914390084       12.8734067330        3.3142997651
  O         2.9790320636        6.7170340265        4.5088439485
  O         5.4010459248        7.8680553739        5.1576175652
  O         4.9349477461        7.1173820319        2.5761861192
  O         3.1578469097       11.5394838800        2.6748064014
  O         3.5626295339        9.0755287532        3.5509012215
  O         3.5460328578       12.8867386176        0.4474257505
  O         1.6342624604       10.4049369354        4.6072520358
  O         4.2663886132       11.2202610715        5.1434102033
  O        -0.9727466890        9.3448253774        3.2854530655
  O         6.5133023691       10.1545051092        2.4355990031
  O         1.6689849052        7.9981471152        1.4778468913
  O         1.7776002948        5.9589447571        9.0917495622
  O         5.7698586435        5.4224909864       10.0396819308
  O         3.4460697265        7.9322468741       10.3356710292
 Ca         5.2120024478        9.8450591195        6.6627659181
 Ca         2.4098762581        6.6153433578        6.7098051516
 Ca         6.4980734764        6.2764066282        6.6727343682
 Ca         1.0898919683        9.9780917990        6.8040355003
 Si        -1.5584054093        5.2124645557        8.6281317468
 Si        -2.1534121574       10.5213071840        6.6287741403
 Si        -1.0475860428        7.5748643848        6.6486243859
  O        -5.3495762164       11.7126373642        7.9569275209
  O         4.3162367645        5.3272293035        7.3340782606
  O        -0.8521398743       11.4816559469        6.1327821319
  O        -3.2815715520       10.3336064626        5.4689273178
  O        -2.8223636437       11.0649799936        8.0657730549
  O        -1.0272022575        6.6537007262        7.9658527859
  O        -1.4555342428        9.1106410031        7.0759233147
  O        -1.4175601816        5.2824644935       10.2035465416
  O         0.4962620836        7.7842579137        6.0311663115
  O        -2.1312719817        6.9668033900        5.4949223804
  O         3.1073757046        8.8505683120        7.3669494543
  O        -4.4333295199        8.0075887553        8.2092881932
  O         0.4101869181       10.1513107500        9.2094006574
  O         0.3519822995       12.2227892336        1.5629558855
  O        -3.6447228091       12.7632236235        0.6110911361
  O        -1.3276648782       10.2977728145        0.3434510274
 Ca        -3.5719306558       10.4795255173        0.0155220957
  H         3.3709392975        0.3593410643        1.7511700733
  H         4.6304240095        1.5167619040        2.0910236421
  H         4.6239433167       -0.1605240680        8.9752463922
  H         3.9954429080       -1.6715362987        8.3810638370
  H         7.4165146479       -1.1994598754       10.5751679970
  H         8.5523905246       -0.9850613237        9.3457446439
  H         5.1070940407        2.2080712460       10.7299450928
  H         6.4640225206        1.3936629351        9.7183006958
  H         3.4441986611        3.2260056816       10.0772181645
  H         3.3403084938        3.8506043839        8.7476448286
  H         2.2543806651        4.3744868027        1.6173655413
  H         2.8820766167        5.8538495058        2.3029307254
  H        -1.6032201595        5.1906842497        1.3261710853
  H        -0.4876815229        5.4314715257        0.0854274120
  H         0.4527703331        2.7797381414        0.9107194987
  H         1.9170210984        1.9852531948       -0.0495616846
  H         0.9794062202        7.3459772391        1.7508770331
  H         2.2385246981        8.5034913242        2.0913658981
  H         2.2324860484        6.8261633049        8.9754841006
  H         1.6037226908        5.3153749565        8.3809267593
  H         5.0249063932        5.7872460636       10.5752011703
  H         6.1605668647        6.0016806456        9.3457004421
  H         2.7154690367        9.1947582807       10.7300596572
  H         4.0722196702        8.3803078677        9.7179868160
  H         1.0523854229       10.2125472207       10.0772616818
  H         0.9486289467       10.8374939207        8.7477909712
  H        -0.1366380486       11.3598376349        1.6171069799
  H         0.4890294453       12.8399916570        2.3028092183
  H        -3.9941273324       12.1774073952        1.3266554518
  H        -2.8792356007       12.4182673932        0.0855657810
  H        -1.9389450896        9.7663989538        0.9107250520
  H        -0.4748086855        8.9719306874       -0.0494802188
  H        -0.3593277441        6.4138771634        3.9157585597
  H         0.8891094012        2.7932714922        3.9813201042
  H         9.0816831168        3.1979299175        3.3846714754
  H         7.2952028453       -2.1955978440        6.7659519308
  H         6.0400329794        1.4055760748        6.6977944652
  H        -1.9351896137        2.0030194721        8.2717431334
  H        -2.7510966882       13.4007934939        3.9154923714
  H        -1.5027984146        9.7801792970        3.9809716108
  H         6.6896019637       10.1845068144        3.3847586434
  H         4.9037453508        4.7907691578        6.7663603621
  H         3.6488536269        8.3916725564        6.6980749599
  H        -4.3282082635        8.9897409477        8.2725305257
     138
 i =        4, E =     -1760.0812229433
 Ca        -0.7452018950        1.2645630106        3.8357157809
 Ca         2.1227486006        4.6120794640        3.9739183567
 Ca        -2.0156504057        5.1237983196        4.0340218077
 Ca         3.3701846231        1.2099643891        3.9571862293
 Si         6.0540422956        6.0250865747        2.0500314172
 Si         6.6585781594        0.6564385059        4.0088437800
 Si         5.5616396547        3.6581181677        4.0318753458
  O         9.8431939769       -0.5481322734        2.7128926518
  O         0.2189531335        5.9239590395        3.3399965188
  O         5.3797996888       -0.2612353394        4.5069031382
  O         7.7821036243        0.8888429010        5.1724932289
  O         7.3223252319        0.1253315770        2.5866706662
  O         5.5580292865        4.5749747968        2.6958251450
  O         5.9395462757        2.0957326579        3.5680390852
  O         5.9473145479        5.9145005392        0.4469463141
  O         4.0429415393        3.4339085682        4.6248978196
  O         6.6421445992        4.2545858907        5.1464031639
  O         1.4315487701        2.3644243899        3.3217732018
  O         8.9022520925        3.1885168141        2.4328374996
  O         4.0455806024        1.0266773441        1.5063100338
  O         4.1769629860       -1.0319964817        9.0846253218
  O         8.1745840021       -1.5750705859       10.0746680249
  O         5.8791098484        0.9530119761       10.3666497400
 Ca         7.6029010490        2.9169845864        6.6491970267
 Ca         4.8024963455       -0.3984387421        6.7014763630
 Ca         8.9068526251       -0.6868095377        6.7025333844
 Ca         3.4732660641        2.9547895218        6.8076310448
 Si         0.8480070299       -1.7848309585        8.6373376190
 Si         0.2579566583        3.5665135705        6.6506688057
 Si         1.3578338653        0.5847250469        6.6466097883
  O        -2.9077850038        4.7473396669        7.9347248850
  O         6.7010908840       -1.6837273718        7.3215829279
  O         1.5431161868        4.4959526490        6.1484989987
  O        -0.8594199227        3.3527754931        5.4647578515
  O        -0.4188020460        4.0903320842        8.0682147938
  O         1.3713256217       -0.3460887579        7.9615824034
  O         0.9585639098        2.1249833153        7.0677592982
  O         0.9769472474       -1.7082071755       10.2290846434
  O         2.8805262197        0.7897961710        6.0372615084
  O         0.2926872112       -0.0248701770        5.4989327748
  O         5.5001239749        1.8680956392        7.3461577542
  O        -2.0497857921        1.0192424053        8.2208950963
  O         2.8552569099        3.1641619796        9.2038541353
  O         2.7547851868        5.2471469377        1.5879297076