     138
 i =        1, E =     -1761.2463631699
 Ca        -0.7776795493        1.3743591320        3.6948232038
 Ca         2.5289317216        4.5812349741        3.2893216585
 Ca        -1.9144116751        4.8635135559        3.9597693362
 Ca         3.4662297723        0.9461643304        3.5233835714
 Si         5.9724391252        5.8104121892        1.9815190833
 Si         6.7416938230        0.6551657913        3.7935908510
 Si         5.5372593586        3.4969922401        3.9303261799
  O         4.9277813051       13.0261884416        2.6090764091
  O         0.3304163273        5.5504303783        3.5368510939
  O         5.5101478191       -0.2721332310        4.3179888451
  O         7.8792264368        0.8581039198        4.9411744384
  O         7.4228841482        0.1669675551        2.3799078281
  O         5.2493623200        4.4667821575        2.6228270825
  O         6.0296590854        2.0565965600        3.3105608189
  O         5.9957308580        5.6806870263        0.3724936180
  O         4.0261521251        3.1878757818        4.4482064587
  O         6.6329426452        4.0976493876        4.9624508822
  O         1.4689436662        2.3179698582        3.3090523644
  O        -1.4654482795        3.1812457503        2.3912483681
  O         4.0122533413        0.8371208164        1.2205554275
  O         4.4887240699       -0.9706889450        9.3167552067
  O         8.3144543392       -1.7291745101        9.4390319422
  O         6.1489507875        1.0127080494        9.4001555463
 Ca         7.7301540635        2.6058844862        6.5837435783
 Ca         4.4417481943       -0.6080643163        6.9483681787
 Ca         8.8087356704       -0.8209608026        6.4209506244
 Ca         3.4792153609        2.9786161754        6.6126216632
 Si         1.0332758615       -1.8092606064        8.3086514757
 Si         0.2724071168        3.4130090352        6.4012024411
 Si         1.3997978590        0.5101562414        6.3567761793
  O        -2.8980030723        4.6556098460        7.6885522094
  O         6.5929361347       -1.5635909865        6.6261638687
  O         1.4830508721        4.3129756122        5.7896117278
  O        -0.9395449070        3.1506708178        5.3656803268
  O        -0.2750202633        4.0010772354        7.8332752541
  O         1.5791531457       -0.3410983402        7.7621797728
  O         1.0346568719        2.0333726478        6.9141002887
  O         1.0231047637       -1.7920727109        9.9219791194
  O         2.9103851275        0.6965620343        5.7849556768
  O         0.2603070267       -0.0735054608        5.3660969158
  O         5.4927388471        1.6331146834        6.9105826010
  O        -1.7487339846        1.0154932628        7.9043145836
  O         3.4957490870        3.7926188937        8.8178494465
  O         2.5536860138        5.2102516575        1.0570685288
  O        -1.3506170634        5.5777358734        0.7109584404
  O         0.9697967850        3.0394695056        0.7163073037
 Ca         9.3462792577        3.3522371472        0.0095830176
 Ca        -3.2456148789        8.2403135086        3.6929848990
 Ca         0.0564622959       11.4529436147        3.2903805515
 Ca        -4.3919649281       11.7341920787        3.9620282849
 Ca         0.9859711525        7.8183274726        3.5193450114
 Si         3.4993031811       12.6795564228        1.9815031727
 Si         4.2592925375        7.5233139311        3.7991852434
 Si         3.0719912943       10.3678752431        3.9303850489
  O         7.4350232275        6.1550413506        2.6060946079
  O        -2.1552305551       12.4108887174        3.5396393968
  O         3.0286151880        6.5901314980        4.3173737871
  O         5.4007074612        7.7282265789        4.9409060915
  O         4.9413838074        7.0384341359        2.3847302026
  O         2.7848846590       11.3300988250        2.6188165523
  O         3.5619366701        8.9279294646        3.3076451758
  O         3.5340769508       12.5486189662        0.3711452394
  O         1.5637325107       10.0547507770        4.4505730084
  O         4.1639125740       10.9687912441        4.9669632185
  O        -1.0196451151        9.1860776170        3.3077146295
  O        -3.9483191490       10.0589729818        2.3933105953
  O         1.5473719150        7.7081106894        1.2097891564
  O         1.9987673838        5.8808285258        9.2607464599
  O         5.8277982200        5.1365882223        9.4395153988
  O         3.6690530627        7.8502228368        9.4122688220
 Ca         5.2635773957        9.4712895837        6.5819103200
 Ca         1.9828525091        6.2694338773        6.9092484848
 Ca         6.3377066332        6.0464213638        6.4275234153
 Ca         1.0013968763        9.8497987357        6.6153092257
 Si        -1.4498124886        5.0591428774        8.3139366930
 Si        -2.2040992664       10.2876312240        6.4037471806
 Si        -1.0757565935        7.3814714954        6.3569996345
  O        -5.3737569190       11.5225978699        7.6838762190
  O         4.1234128834        5.2996172281        6.6250732195
  O        -0.9909709162       11.1850137541        5.7903547064
  O        -3.4160865507       10.0233473993        5.3670478864
  O        -2.7343788678       10.8825664067        7.8399598244
  O        -0.9131513867        6.5269762944        7.7612668859
  O        -1.4531693411        8.9017405099        6.9145574872
  O        -1.4623165807        5.0764340111        9.9277864887
  O         0.4332516144        7.5682266899        5.7828868710
  O        -2.2130671240        6.7961539069        5.3663067774
  O         3.0323200378        8.5092498371        6.9119601671
  O        -4.2143204320        7.8855079143        7.9057931873
  O         1.0186318934       10.6621680152        8.8187659885
  O         0.0800430175       12.0809844994        1.0572427452
  O        -3.8132429614       12.4432082693        0.7141303310
  O        -1.5189651498        9.9064258181        0.7160374478
 Ca         6.8749323666       10.2102482356        0.0077589418
  H         3.1753988923        0.8667272000        0.5899632461
  H         4.6612769661        1.3580727159        0.6633594236
  H         5.1682033179       -0.2336759995        9.5261691466
  H         5.0084940681       -1.8408216598        9.2880507556
  H         8.1203003770       -2.5825153712        9.9836403023
  H         9.1183108210       -1.9773165367        8.8805652139
  H         5.6706965210        1.8204767364        9.9117263533
  H         6.0063769510        1.2218298627        8.4224910008
  H         3.8907078076        3.2810572453        9.6426171639
  H         4.2369045126        4.4487646567        8.6841180836
  H         1.9482597031        4.5321435089        0.6443550049
  H         2.1172427448        6.1125571949        0.9700635623
  H        -2.0714046561        5.8406056392        1.3526611899
  H        -1.0198587069        6.4497750431        0.3054179488
  H         1.0560501513        2.8092806188        1.6882254689
  H         1.4169010142        2.1966618018        0.2632895732
  H         0.7005967355        7.7370187696        0.5845481387
  H         2.1918843401        8.2243538076        0.6458496024
  H         2.6694495618        6.6172442298        9.4956924387
  H         2.5119222711        5.0052583772        9.2456551953
  H         5.6372487024        4.2861626809        9.9857165029
  H         6.6371021682        4.8921378351        8.8808327417
  H         3.1935868787        8.6646445134        9.9193279219
  H         3.5364036321        8.0735050769        8.4372869906
  H         1.4246355933       10.1508048415        9.6395552794
  H         1.7560462845       11.3230652994        8.6818544557
  H        -0.5240169764       11.4018882660        0.6439203760
  H        -0.3602635453       12.9810414691        0.9739444587
  H        -4.5424913755       12.7082821405        1.3423904810
  H        -3.4970215470       13.3193708564        0.3004101520
  H        -1.4140518708        9.6782874011        1.6864875635
  H        -1.0572402013        9.0695633012        0.2642958952
  H         0.5604113565        5.3513402233        4.4793314606
  H         1.3449382644        2.7053775350        4.2051149991
  H        -0.6195219890        3.6825563512        2.3880916063
  H         6.3959091058       -1.3325057013        5.6826122618
  H         5.6945680968        1.2405785890        6.0290965574
  H        -0.8237428712        1.3499819872        7.9306574259
  H        -1.9083095173       12.2222471336        4.4804786569
  H        -1.1255407078        9.5729621538        4.2061187417
  H        -3.0949606323       10.5495514941        2.3862221695
  H         3.9417994911        5.5192979559        5.6765726219
  H         3.2294973714        8.1267524377        6.0253707739
  H        -3.2911862463        8.2221124826        7.9353356488
     138
 i =        2, E =     -1761.2492074209
 Ca        -0.7865400316        1.3857453406        3.6969489711
 Ca         2.5250029558        4.5811332152        3.2876671398
 Ca        -1.9267396723        4.8641791864        3.9567587929
 Ca         3.4693643971        0.9434561660        3.5239286764
 Si         5.9700310327        5.8116809790        1.9821139968
 Si         6.7398967155        0.6520857835        3.7923441272
 Si         5.5404356205        3.4950440557        3.9377800416
  O         4.9420943436       13.0326666549        2.6140810932
  O         0.3282253481        5.5525504680        3.5370928079
  O         5.5108710097       -0.2816943575        4.3185931095
  O         7.8890132584        0.8619332265        4.9294738682
  O         7.4403384530        0.1729793389        2.3849207628
  O         5.2552484631        4.4658153016        2.6301469282
  O         6.0436795723        2.0622147942        3.3084288070
  O         6.0113020022        5.6846826810        0.3725509965
  O         4.0248861558        3.1904611581        4.4493886079
  O         6.6452122049        4.0989815217        4.9607865026
  O         1.4709172080        2.3142046697        3.3091867644
  O        -1.4532045845        3.1843402403        2.3911307613
  O         4.0088930041        0.8379770381        1.2200357444
  O         4.4915867780       -0.9707533516        9.3178554220
  O         8.3229229141       -1.7258052414        9.4337157277
  O         6.1536572073        1.0109671685        9.3999058010
 Ca         7.7401714020        2.5981694390        6.5803793851
 Ca         4.4435289984       -0.6115908229        6.9488149659
 Ca         8.8265141341       -0.8269581918        6.4202452049
 Ca         3.4788784718        2.9797886876        6.6124903760
 Si         1.0370062341       -1.8079436224        8.3056380757
 Si         0.2701430455        3.4133391168        6.4001779953
 Si         1.4046287892        0.5138184719        6.3490964676
  O        -2.9004613027        4.6532454959        7.6867957351
  O         6.6053125570       -1.5509577056        6.6264131886
  O         1.4763774830        4.3161105236        5.7830222057
  O        -0.9527896632        3.1449018289        5.3776432344
  O        -0.2927451970        3.9889873802        7.8315197288
  O         1.5752611582       -0.3370152275        7.7552180374
  O         1.0219771141        2.0292285920        6.9185695074
  O         1.0191861522       -1.7931879193        9.9196871181
  O         2.9200494290        0.6950758377        5.7838658805
  O         0.2513596909       -0.0754245172        5.3752306411
  O         5.4960079650        1.6342972594        6.9133491366
  O        -1.7618851040        1.0197619290        7.8988484706
  O         3.5021558771        3.7923855440        8.8193142301
  O         2.5570131060        5.2097383522        1.0541267257
  O        -1.3571903633        5.5739670749        0.7088683818
  O         0.9691090090        3.0429352821        0.7149978175
 Ca         9.3306150521        3.3510982985        0.0107393791
 Ca        -3.2625916920        8.2534893064        3.6931417472
 Ca         0.0486579564       11.4529863627        3.2904577528
 Ca        -4.4080971887       11.7347372021        3.9576730808
 Ca         0.9859536907        7.8169721086        3.5198828175
 Si         3.4991371608       12.6828400388        1.9821820816
 Si         4.2581190858        7.5230176514        3.8012422487
 Si         3.0753151343       10.3665247812        3.9388829856
  O         7.4309335964        6.1564088652        2.6108135899
  O        -2.1636767848       12.4084460145        3.5402851299
  O         3.0235348600        6.5905208783        4.3192442778
  O         5.4161573648        7.7280993602        4.9292524111
  O         4.9465065694        7.0462898673        2.3869710070
  O         2.7973374027       11.3283390384        2.6249100951
  O         3.5625788936        8.9289745828        3.3081254357
  O         3.5462762970       12.5525191608        0.3700766226
  O         1.5608672917       10.0617810954        4.4500529998
  O         4.1789134739       10.9701678756        4.9646990041
  O        -1.0153745519        9.1837625767        3.3092948103
  O        -3.9369659896       10.0548278745        2.3921632874
  O         1.5468619730        7.7091252964        1.2084741559
  O         2.0024589242        5.8821125859        9.2613224214
  O         5.8325296570        5.1404977239        9.4361658846
  O         3.6720692821        7.8494292912        9.4096119666
 Ca         5.2739738106        9.4630512835        6.5770099981
 Ca         1.9863108926        6.2658097721        6.9078459074
 Ca         6.3495364070        6.0435060287        6.4274216348
 Ca         0.9991327333        9.8544996080        6.6150153767
 Si        -1.4539879907        5.0622688020        8.3149043122
 Si        -2.2111599300       10.2871565737        6.4002524895
 Si        -1.0816170391        7.3829161484        6.3510814247
  O        -5.3894079766       11.5209376089        7.6848612943
  O         4.1367333667        5.3078454447        6.6249247455
  O        -0.9971947691       11.1817500025        5.7820780107
  O        -3.4401653966       10.0163329044        5.3825592756
  O        -2.7453486406       10.8825864983        7.8342742941
  O        -0.9207751548        6.5300635811        7.7562791673
  O        -1.4695912334        8.8974605497        6.9180373589
  O        -1.4716668627        5.0739318273        9.9294374260
  O         0.4325030825        7.5703992195        5.7868975970
  O        -2.2263325685        6.7930063586        5.3690469294
  O         3.0334826696        8.5121553594        6.9138085263
  O        -4.2281826391        7.8901440247        7.9010581389
  O         1.0169128012       10.6646387419        8.8233730714
  O         0.0781818228       12.0793486676        1.0576028594
  O        -3.8277644408       12.4409889494        0.7115430632
  O        -1.5135532426        9.9125832746        0.7163595118
 Ca         6.8558537581       10.2097105910        0.0114771406
  H         3.1747441186        0.8655783375        0.5857284646
  H         4.6613277633        1.3582281531        0.6665251592
  H         5.1706742305       -0.2343876181        9.5283299450
  H         5.0119444859       -1.8391071329        9.2894076339
  H         8.1325050836       -2.5815608446        9.9799439533
  H         9.1334048728       -1.9799617711        8.8908388844
  H         5.6782109045        1.8173690587        9.9157734958
  H         6.0083161734        1.2209858786        8.4225037642
  H         3.8964545340        3.2817796576        9.6447367398
  H         4.2406446594        4.4495627479        8.6811709193
  H         1.9490467358        4.5321921553        0.6447711315
  H         2.1197941061        6.1123723034        0.9712534018
  H        -2.0810551553        5.8448846377        1.3436566944
  H        -1.0273905633        6.4504820439        0.3108491346
  H         1.0541804395        2.8087204039        1.6870168860
  H         1.4143987770        2.1974003961        0.2661334913
  H         0.7012416041        7.7369436286        0.5819741416
  H         2.1936235741        8.2239593837        0.6460817126
  H         2.6772770952        6.6127350532        9.4980811478
  H         2.5158581197        5.0069238589        9.2468412730
  H         5.6398269700        4.2884933655        9.9806500069
  H         6.6454769093        4.8891126052        8.8865690833
  H         3.2038924003        8.6611893453        9.9252728273
  H         3.5400477301        8.0713626979        8.4341974971
  H         1.4241757712       10.1498352243        9.6398503633
  H         1.7524668997       11.3252969967        8.6803903419
  H        -0.5270160980       11.4038522159        0.6426870844
  H        -0.3641372283       12.9786139076        0.9746079916
  H        -4.5562450237       12.7103553304        1.3353367030
  H        -3.5049605006       13.3192572541        0.3047516185
  H        -1.4218330454        9.6801552339        1.6879394574
  H        -1.0661520417        9.0691123121        0.2644999742
  H         0.5553162915        5.3482391637        4.4786821815
  H         1.3438412725        2.7044552293        4.2034936846
  H        -0.6028210901        3.6797352552        2.3849981321
  H         6.4008566216       -1.3276876190        5.6830079840
  H         5.6936352877        1.2419836098        6.0307787074
  H        -0.8347467987        1.3474153170        7.9283404629
  H        -1.9160952649       12.2165539779        4.4796307125
  H        -1.1290708458        9.5740430438        4.2051217473
  H        -3.0833586161       10.5462633223        2.3850895934
  H         3.9467667014        5.5222661623        5.6770070678
  H         3.2294930710        8.1292896027        6.0272020088
  H        -3.3017654018        8.2194071784        7.9320823993
     138
 i =        3, E =     -1761.2505563432
 Ca        -0.7865259141        1.3934422108        3.6951575946
 Ca         2.5194248659        4.5796491600        3.2869150016
 Ca        -1.9276455033        4.8646257238        3.9488868448
 Ca         3.4638009874        0.9393628728        3.5212726667
 Si         5.9714526855        5.8145174955        1.9812630503
 Si         6.7463996472        0.6532458657        3.7927325765
 Si         5.5453155122        3.4955870508        3.9392210719
  O         4.9465821235       13.0382527529        2.6145953226
  O         0.3297831571        5.5555706402        3.5366052991
  O         5.5133692480       -0.2811161700        4.3116783116
  O         7.8958103640        0.8603041979        4.9310606542
  O         7.4468063060        0.1753152395        2.3838978434
  O         5.2597252375        4.4692730359        2.6334724610
  O         6.0411754726        2.0598697667        3.3081324880
  O         6.0277059713        5.6865344259        0.3721816037
  O         4.0298184307        3.1890843255        4.4519935163
  O         6.6540338909        4.0982092258        4.9604957019
  O         1.4733819325        2.3132426029        3.3101483268
  O        -1.4455412531        3.1885879235        2.3899427864
  O         4.0059205684        0.8378415869        1.2181623909
  O         4.4942935968       -0.9718837865        9.3198908765
  O         8.3292060897       -1.7270340300        9.4321444336
  O         6.1530918534        1.0077546469        9.3996135530
 Ca         7.7408531998        2.5903349888        6.5817174888
 Ca         4.4485123407       -0.6133287805        6.9465738135
 Ca         8.8356775646       -0.8314126938        6.4251093246
 Ca         3.4840477094        2.9825423405        6.6151554526
 Si         1.0437678460       -1.8047070968        8.3110229928
 Si         0.2607108160        3.4122903284        6.4006666259
 Si         1.4031625353        0.5142614913        6.3481843957
  O        -2.8993763729        4.6509189047        7.6857928710
  O         6.6136111727       -1.5331023659        6.6289012852
  O         1.4669027632        4.3175643010        5.7877250885
  O        -0.9618162017        3.1451663456        5.3756989834
  O        -0.2942008539        3.9889536264        7.8348141326
  O         1.5766956610       -0.3342269698        7.7549964994
  O         1.0252861107        2.0324959794        6.9142376132
  O         1.0153060534       -1.7934703904        9.9241646816
  O         2.9199388881        0.7000057901        5.7863044691
  O         0.2559160025       -0.0762897622        5.3675721809
  O         5.4925781735        1.6346806199        6.9146692030
  O        -1.7652151971        1.0140168592        7.9018245266
  O         3.5091186671        3.7926526740        8.8207243074
  O         2.5610926106        5.2095669251        1.0524773988
  O        -1.3599334213        5.5768347051        0.7096580292
  O         0.9706209354        3.0457130850        0.7140491093
 Ca         9.3302658228        3.3468922252        0.0133666423
 Ca        -3.2681689149        8.2609094792        3.6895656024
 Ca         0.0387852880       11.4482160770        3.2914514299
 Ca        -4.4103882504       11.7354786959        3.9491230152
 Ca         0.9813690843        7.8153370225        3.5187074929
 Si         3.4950995688       12.6863699513        1.9783771980
 Si         4.2621805051        7.5220035141        3.8020807352
 Si         3.0756961328       10.3668418563        3.9400770624
  O         7.4289824953        6.1625102368        2.6133080360
  O        -2.1630704793       12.4102360331        3.5405269310
  O         3.0243188400        6.5913378933        4.3206368369
  O         5.4273765213        7.7247126181        4.9259674504
  O         4.9469600973        7.0492178550        2.3839726675
  O         2.8057865703       11.3270973678        2.6228919488
  O         3.5630957326        8.9282101825        3.3116901761
  O         3.5489000255       12.5514899552        0.3668751839
  O         1.5614736610       10.0628591560        4.4541545049
  O         4.1909450036       10.9638383753        4.9586420886
  O        -1.0136958934        9.1841569383        3.3111205472
  O        -3.9244714286       10.0524501117        2.3902734467
  O         1.5465644231        7.7086068291        1.2068400808
  O         2.0067298224        5.8802679098        9.2610440874
  O         5.8383684447        5.1419648783        9.4360719729
  O         3.6699590553        7.8475037307        9.4086218187
 Ca         5.2679931338        9.4561121264        6.5803319039
 Ca         1.9895661710        6.2686955098        6.9036138794
 Ca         6.3531346591        6.0406045143        6.4288862661
 Ca         1.0029122530        9.8598161130        6.6167001823
 Si        -1.4557303197        5.0624354061        8.3187423131
 Si        -2.2183920234       10.2831421517        6.4006946837
 Si        -1.0878465034        7.3802015773        6.3501385330
  O        -5.3881145677       11.5167623306        7.6814261459
  O         4.1372806617        5.3094807228        6.6247067448
  O        -1.0055481176       11.1761629319        5.7799506294
  O        -3.4461712086       10.0181294688        5.3799612809
  O        -2.7541101007       10.8843357449        7.8318241362
  O        -0.9228682090        6.5288644502        7.7561061544
  O        -1.4681176260        8.8969873472        6.9170866506
  O        -1.4741711314        5.0751579527        9.9330120846
  O         0.4268386485        7.5721019490        5.7864324466
  O        -2.2369762977        6.7933822393        5.3689592068
  O         3.0326311620        8.5140708035        6.9149720639
  O        -4.2445344162        7.8897227916        7.9043127846
  O         1.0160864867       10.6661468821        8.8233308167
  O         0.0761006155       12.0806229125        1.0552206339
  O        -3.8485148251       12.4428723492        0.7030181447
  O        -1.5151752434        9.9159555873        0.7139270212
 Ca         6.8525513134       10.2092709333        0.0169856326
  H         3.1729484741        0.8650357758        0.5824434725
  H         4.6608016461        1.3584745034        0.6690284557
  H         5.1719807229       -0.2353223330        9.5300618461
  H         5.0149550192       -1.8396143006        9.2918618132
  H         8.1400074988       -2.5824997308        9.9799175431
  H         9.1464383436       -1.9760463682        8.8929551206
  H         5.6874505863        1.8167773486        9.9188622215
  H         6.0123809242        1.2207737603        8.4212580598
  H         3.9068252361        3.2841622291        9.6444330007
  H         4.2476098229        4.4486961349        8.6786179510
  H         1.9505498298        4.5319118282        0.6455442905
  H         2.1227819419        6.1119899112        0.9717010761
  H        -2.0912856398        5.8456704593        1.3377730238
  H        -1.0319683507        6.4533816278        0.3101589512
  H         1.0504861745        2.8074653241        1.6855668643
  H         1.4100732224        2.1990430362        0.2655649322
  H         0.7023226710        7.7372213478        0.5810822636
  H         2.1940864875        8.2237464285        0.6462686359
  H         2.6827198596        6.6083167744        9.4991886951
  H         2.5204651172        5.0060388348        9.2482170982
  H         5.6423396159        4.2897142927        9.9790313371
  H         6.6522966695        4.8896492786        8.8872490743
  H         3.2133823855        8.6623159654        9.9266159982
  H         3.5438843058        8.0724865169        8.4322128943
  H         1.4256941890       10.1534981350        9.6370445091
  H         1.7528405938       11.3247749426        8.6801967989
  H        -0.5287420691       11.4022083691        0.6432972615
  H        -0.3674654501       12.9793318751        0.9756573726
  H        -4.5709931665       12.7130851526        1.3332201472
  H        -3.5131751633       13.3199359923        0.3052820521
  H        -1.4290454477        9.6804661698        1.6857197972
  H        -1.0744371932        9.0685416933        0.2668861631
  H         0.5486638891        5.3447110900        4.4782750958
  H         1.3425242172        2.7037386298        4.2031947012
  H        -0.5901788385        3.6776937216        2.3833931040
  H         6.4103420122       -1.3202626674        5.6833236324
  H         5.6944608748        1.2428975248        6.0332297565
  H        -0.8415677780        1.3472937667        7.9271756793
  H        -1.9275477824       12.2093789341        4.4799372710
  H        -1.1328376116        9.5746048915        4.2057986090
  H        -3.0721230109       10.5463362626        2.3857187136
  H         3.9555658058        5.5270639148        5.6769032812
  H         3.2294344125        8.1316264738        6.0287744389
  H        -3.3160748846        8.2154727767        7.9300286324
     138
 i =        4, E =     -1761.2512405970
 Ca        -0.7798373617        1.3920077987        3.6928241282
 Ca         2.5183772275        4.5789410066        3.2899949064
 Ca        -1.9235999814        4.8673941963        3.9418449060
 Ca         3.4600481979        0.9377870958        3.5223367792
 Si         5.9755597832        5.8188614966        1.9798102125
 Si         6.7490891860        0.6528187726        3.7928538686
 Si         5.5502303013        3.4971353489        3.9383596948
  O         4.9473206397       13.0408523658        2.6099662936
  O         0.3312344893        5.5547663170        3.5354789302
  O         5.5157548912       -0.2828523616        4.3095135455
  O         7.9003440319        0.8570175405        4.9299166882
  O         7.4528104403        0.1772784037        2.3828996224
  O         5.2661037133        4.4755754954        2.6356319561
  O         6.0425849075        2.0591867605        3.3072520614
  O         6.0383930741        5.6844204897        0.3717058661
  O         4.0358800817        3.1905282820        4.4535856203
  O         6.6637843689        4.0938206432        4.9587087955
  O         1.4708688467        2.3176738141        3.3093322810
  O        -1.4365824916        3.1900997632        2.3883351360
  O         4.0032339804        0.8369331282        1.2168181876
  O         4.4959963167       -0.9737545816        9.3190999688
  O         8.3369273511       -1.7269011750        9.4343320398
  O         6.1541797925        1.0031068861        9.4004149493
 Ca         7.7341721474        2.5868444405        6.5853387833
 Ca         4.4507160639       -0.6114416497        6.9421056005
 Ca         8.8418706154       -0.8358171884        6.4280588392
 Ca         3.4854064260        2.9829330042        6.6152175210
 Si         1.0498999653       -1.8044497734        8.3152957367
 Si         0.2584064191        3.4146952016        6.3996152187
 Si         1.4057850901        0.5150809739        6.3498841440
  O        -2.8971922747        4.6488890639        7.6888120415
  O         6.6148383680       -1.5195502497        6.6320574251
  O         1.4597500413        4.3267538549        5.7867209092
  O        -0.9681492917        3.1488630083        5.3770322614
  O        -0.2915100248        3.9879970810        7.8367599972
  O         1.5744359659       -0.3322387647        7.7583912016
  O         1.0236283270        2.0339736354        6.9117807539
  O         1.0140086132       -1.7928145377        9.9272264558
  O         2.9218846166        0.6979115460        5.7851048207
  O         0.2603580082       -0.0742789065        5.3672968750
  O         5.4951712684        1.6341472103        6.9161901813
  O        -1.7634971467        1.0111202889        7.9035965132
  O         3.5178704735        3.7928237791        8.8214555089
  O         2.5648464019        5.2090106698        1.0551829189