 DBCSR| CPU Multiplication driver                                           XSMM (U)
 DBCSR| Multrec recursion limit                                              512 (U)
 DBCSR| Multiplication stack size                                           1000 (D)
 DBCSR| Maximum elements for images                                    UNLIMITED (U)
 DBCSR| Multiplicative factor virtual images                                   1 (U)
 DBCSR| Use multiplication densification                                       T (D)
 DBCSR| Multiplication size stacks                                             3 (U)
 DBCSR| Use memory pool for CPU allocation                                     F (U)
 DBCSR| Number of 3D layers                                               SINGLE (U)
 DBCSR| Use MPI memory allocation                                              F (U)
 DBCSR| Use RMA algorithm                                                      F (U)
 DBCSR| Use Communication thread                                               T (U)
 DBCSR| Communication thread load                                             83 (D)
 DBCSR| MPI: My process id                                                     0
 DBCSR| MPI: Number of processes                                              52
 DBCSR| OMP: Current number of threads                                         2
 DBCSR| OMP: Max number of threads                                             2
 DBCSR| Split modifier for TAS multiplication algorithm                  1.0E+00 (U)


  **** **** ******  **  PROGRAM STARTED AT               2025-01-16 04:11:12.408
 ***** ** ***  *** **   PROGRAM STARTED ON                           ubuntu-GPU2
 **    ****   ******    PROGRAM STARTED BY                                   zkm
 ***** **    ** ** **   PROGRAM PROCESS ID                               3478912
  **** **  *******  **  PROGRAM STARTED IN /home/zkm/CP2K/Generate_dataset/Jenni
                                           te/Elastic/elastic_cp2k/example/epsil
                                           onxx/pos

 CP2K| version string:                                       CP2K version 2024.3
 CP2K| source code revision number:                                  git:6712648
 CP2K| cp2kflags: omp libint fftw3 libxc libgrpp pexsi elpa parallel scalapack m
 CP2K|            pi_f08 cosma quip xsmm plumed2 spglib mkl sirius libvori libbq
 CP2K|            qb libvdwxc hdf5
 CP2K| is freely available from                            https://www.cp2k.org/
 CP2K| Program compiled at            2024年 10月 05日 星期六 13:00:57 CST
 CP2K| Program compiled on                                           ubuntu-GPU2
 CP2K| Program compiled for                                                local
 CP2K| Data directory path                       /home/zkm/CP2K/cp2k-2024.3/data
 CP2K| Input file name                                                geoopt.inp

 GLOBAL| Force Environment number                                              1
 GLOBAL| Basis set file name                                        BASIS_MOLOPT
 GLOBAL| Potential file name                                           POTENTIAL
 GLOBAL| MM Potential file name                                     MM_POTENTIAL
 GLOBAL| Coordinate file name                                          coord.xyz
 GLOBAL| Method name                                                        CP2K
 GLOBAL| Project name                                                     geoopt
 GLOBAL| Run type                                                        GEO_OPT
 GLOBAL| FFT library                                                       FFTW3
 GLOBAL| Diagonalization library                                            ELPA
 GLOBAL| DGEMM library                                                      BLAS
 GLOBAL| Minimum number of eigenvectors for ELPA usage                        16
 GLOBAL| Orthonormality check for eigenvectors                          DISABLED
 GLOBAL| Matrix multiplication library                                     COSMA
 GLOBAL| All-to-all communication in single precision                          F
 GLOBAL| FFTs using library dependent lengths                                  F
 GLOBAL| Grid backend                                                       AUTO
 GLOBAL| Global print level                                                  LOW
 GLOBAL| MPI I/O enabled                                                       T
 GLOBAL| Total number of message passing processes                            52
 GLOBAL| Number of threads for this process                                    2
 GLOBAL| This output is from process                                           0
 GLOBAL| Stack size for threads created by OpenMP (OMP_STACKSIZE)        default
 GLOBAL| CPU model name            Intel(R) Xeon(R) Platinum 8179M CPU @ 2.40GHz
 GLOBAL| CPUID                                                              1003

 MEMORY| system memory details [Kb]
 MEMORY|                        rank 0           min           max       average
 MEMORY| MemTotal            527974664     527974664     527974664     527974664
 MEMORY| MemFree             104963476     104963476     104963476     104963476
 MEMORY| Buffers               6978708       6978708       6978708       6978708
 MEMORY| Cached              241308968     241308968     241308968     241308968
 MEMORY| Slab                 39937716      39937716      39937716      39937716
 MEMORY| SReclaimable         37111740      37111740      37111740      37111740
 MEMORY| MemLikelyFree       390362892     390362892     390362892     390362892


 GENERATE|  Preliminary Number of Bonds generated:                             0
 GENERATE|  Achieved consistency in connectivity generation.

 *******************************************************************************
 *******************************************************************************
 **                                                                           **
 **     #####                         ##              ##                      **
 **    ##   ##            ##          ##              ##                      **
 **   ##     ##                       ##            ######                    **
 **   ##     ##  ##   ##  ##   #####  ##  ##   ####   ##    #####    #####    **
 **   ##     ##  ##   ##  ##  ##      ## ##   ##      ##   ##   ##  ##   ##   **
 **   ##  ## ##  ##   ##  ##  ##      ####     ###    ##   ######   ######    **
 **    ##  ###   ##   ##  ##  ##      ## ##      ##   ##   ##       ##        **
 **     #######   #####   ##   #####  ##  ##  ####    ##    #####   ##        **
 **           ##                                                    ##        **
 **                                                                           **
 **                                                ... make the atoms dance   **
 **                                                                           **
 **            Copyright (C) by CP2K developers group (2000-2024)             **
 **                      J. Chem. Phys. 152, 194103 (2020)                    **
 **                                                                           **
 *******************************************************************************


 TOTAL NUMBERS AND MAXIMUM NUMBERS

  Total number of            - Atomic kinds:                                   4
                             - Atoms:                                        138
                             - Shell sets:                                   138
                             - Shells:                                       620
                             - Primitive Cartesian functions:                696
                             - Cartesian basis functions:                   1554
                             - Spherical basis functions:                   1460

  Maximum angular momentum of- Orbital basis functions:                        2
                             - Local part of the GTH pseudopotential:          2
                             - Non-local part of the GTH pseudopotential:      3


 SCF PARAMETERS         Density guess:                                    ATOMIC
                        --------------------------------------------------------
                        max_scf:                                              25
                        max_scf_history:                                       0
                        max_diis:                                              4
                        --------------------------------------------------------
                        eps_scf:                                        1.00E-07
                        eps_scf_history:                                0.00E+00
                        eps_diis:                                       1.00E-01
                        eps_eigval:                                     1.00E-05
                        --------------------------------------------------------
                        level_shift [a.u.]:                             0.000000
                        --------------------------------------------------------
                        Outer loop SCF in use 
                        No variables optimised in outer loop
                        eps_scf                                         1.00E-07
                        max_scf                                               20
                        No outer loop optimization
                        step_size                                       5.00E-01

 BFGS| Use rational function optimization for step estimation:                NO
 BFGS| Use model Hessian for initial guess:                                  YES
 BFGS| Restart Hessian:                                                       NO
 BFGS| Trust radius:                                                       0.378

 *******************************************************************************
 ***                     STARTING GEOMETRY OPTIMIZATION                      ***
 ***                                   BFGS                                  ***
 *******************************************************************************

 Number of electrons:                                                        656
 Number of occupied orbitals:                                                328
 Number of molecular orbitals:                                               328

 Number of orbital functions:                                               1460
 Number of independent orbital functions:                                   1460

 Extrapolation method: initial_guess


 SCF WAVEFUNCTION OPTIMIZATION

  ----------------------------------- OT ---------------------------------------
  Minimizer      : DIIS                : direct inversion
                                         in the iterative subspace
                                         using   7 DIIS vectors
                                         safer DIIS on
  Preconditioner : FULL_KINETIC        : inversion of T + eS
  Precond_solver : DEFAULT
  stepsize       :    0.15000000                  energy_gap     :    0.20000000
  eps_taylor     :   0.10000E-15                  max_taylor     :             4
  ----------------------------------- OT ---------------------------------------

  Step     Update method      Time    Convergence         Total energy    Change
  ------------------------------------------------------------------------------
     1 OT DIIS     0.15E+00    1.4     0.01899573     -1710.2860693355 -1.71E+03
     2 OT DIIS     0.15E+00    1.7     0.01128065     -1728.7855585671 -1.85E+01
     3 OT DIIS     0.15E+00    1.8     0.00837833     -1737.8981234507 -9.11E+00
     4 OT DIIS     0.15E+00    1.7     0.00559407     -1746.5046753234 -8.61E+00
     5 OT DIIS     0.15E+00    1.7     0.00415453     -1750.9624509905 -4.46E+00
     6 OT DIIS     0.15E+00    1.7     0.00320165     -1753.8395447190 -2.88E+00
     7 OT DIIS     0.15E+00    1.7     0.00244184     -1755.9910987034 -2.15E+00
     8 OT DIIS     0.15E+00    1.7     0.00191427     -1757.3917369319 -1.40E+00
     9 OT DIIS     0.15E+00    1.8     0.00153098     -1758.3156427667 -9.24E-01
    10 OT DIIS     0.15E+00    1.7     0.00130416     -1758.9122324915 -5.97E-01
    11 OT DIIS     0.15E+00    1.7     0.00112373     -1759.3146696137 -4.02E-01
    12 OT DIIS     0.15E+00    1.8     0.00100326     -1759.6738106160 -3.59E-01
    13 OT DIIS     0.15E+00    1.7     0.00087064     -1759.9208913950 -2.47E-01
    14 OT DIIS     0.15E+00    1.7     0.00074884     -1760.1588203835 -2.38E-01
    15 OT DIIS     0.15E+00    1.7     0.00061857     -1760.3646311324 -2.06E-01
    16 OT DIIS     0.15E+00    1.7     0.00053242     -1760.4819046280 -1.17E-01
    17 OT DIIS     0.15E+00    1.7     0.00044853     -1760.5935611933 -1.12E-01
    18 OT DIIS     0.15E+00    1.7     0.00041578     -1760.6490927587 -5.55E-02
    19 OT DIIS     0.15E+00    1.7     0.00039654     -1760.6921423133 -4.30E-02
    20 OT DIIS     0.15E+00    1.7     0.00039266     -1760.7209214169 -2.88E-02
    21 OT DIIS     0.15E+00    1.7     0.00039113     -1760.7325366398 -1.16E-02
    22 OT SD       0.15E+00    1.7     0.00038990     -1760.7327664517 -2.30E-04
    23 OT SD       0.15E+00    1.9     0.00039246     -1760.7437182232 -1.10E-02
    24 OT SD       0.15E+00    1.7     0.00039550     -1760.7548230745 -1.11E-02
    25 OT SD       0.15E+00    1.7     0.00039876     -1760.7661041901 -1.13E-02

  Leaving inner SCF loop after reaching    25 steps.


  Electronic density on regular grids:       -655.9999999993        0.0000000007
  Core density on regular grids:              655.9999999997       -0.0000000003
  Total charge density on r-space grids:        0.0000000003
  Total charge density g-space grids:           0.0000000003

  Overlap energy of the core charge distribution:               0.00000062846105
  Self energy of the core charge distribution:              -4144.80997841715816
  Core Hamiltonian energy:                                   1116.47519559050284
  Hartree energy:                                            1614.54506195518570
  Exchange-correlation energy:                               -346.48634080692517
  Dispersion energy:                                           -0.49004314021193

  Total energy:                                             -1760.76610419014582

  outer SCF iter =    1 RMS gradient =   0.40E-03 energy =      -1760.7661041901

  ----------------------------------- OT ---------------------------------------
  Minimizer      : DIIS                : direct inversion
                                         in the iterative subspace
                                         using   7 DIIS vectors
                                         safer DIIS on
  Preconditioner : FULL_KINETIC        : inversion of T + eS
  Precond_solver : DEFAULT
  stepsize       :    0.15000000                  energy_gap     :    0.20000000
  eps_taylor     :   0.10000E-15                  max_taylor     :             4
  ----------------------------------- OT ---------------------------------------

  Step     Update method      Time    Convergence         Total energy    Change
  ------------------------------------------------------------------------------
     1 OT DIIS     0.15E+00    3.5     0.00068168     -1760.7775728125 -1.15E-02
     2 OT DIIS     0.15E+00    1.8     0.00060654     -1760.8086709897 -3.11E-02
     3 OT DIIS     0.15E+00    1.7     0.00054977     -1760.8596510715 -5.10E-02
     4 OT DIIS     0.15E+00    1.7     0.00052813     -1760.9038667857 -4.42E-02
     5 OT DIIS     0.15E+00    1.8     0.00051069     -1760.9516677878 -4.78E-02
     6 OT DIIS     0.15E+00    1.7     0.00048049     -1761.0184600193 -6.68E-02
     7 OT DIIS     0.15E+00    1.7     0.00039123     -1761.1183574738 -9.99E-02
     8 OT DIIS     0.15E+00    1.7     0.00025457     -1761.1968254926 -7.85E-02
     9 OT DIIS     0.15E+00    1.7     0.00019640     -1761.2127042564 -1.59E-02
    10 OT DIIS     0.15E+00    1.7     0.00012728     -1761.2297834595 -1.71E-02
    11 OT DIIS     0.15E+00    1.7     0.00010080     -1761.2309633668 -1.18E-03
    12 OT DIIS     0.15E+00    1.7     0.00006881     -1761.2342223066 -3.26E-03
    13 OT DIIS     0.15E+00    1.7     0.00005616     -1761.2350198363 -7.98E-04
    14 OT DIIS     0.15E+00    1.7     0.00004185     -1761.2357783357 -7.58E-04
    15 OT DIIS     0.15E+00    1.7     0.00003169     -1761.2362439782 -4.66E-04
    16 OT DIIS     0.15E+00    1.7     0.00002459     -1761.2365166662 -2.73E-04
    17 OT DIIS     0.15E+00    1.7     0.00001870     -1761.2366876688 -1.71E-04
    18 OT DIIS     0.15E+00    1.7     0.00001441     -1761.2367838096 -9.61E-05
    19 OT DIIS     0.15E+00    1.7     0.00001041     -1761.2368406930 -5.69E-05
    20 OT DIIS     0.15E+00    2.1     0.00000691     -1761.2368780255 -3.73E-05
    21 OT DIIS     0.15E+00    1.7     0.00000550     -1761.2368880848 -1.01E-05
    22 OT DIIS     0.15E+00    1.8     0.00000458     -1761.2368931804 -5.10E-06
    23 OT DIIS     0.15E+00    1.7     0.00000361     -1761.2368976749 -4.49E-06
    24 OT DIIS     0.15E+00    1.7     0.00000283     -1761.2369010910 -3.42E-06
    25 OT DIIS     0.15E+00    1.8     0.00000209     -1761.2369037551 -2.66E-06

  Leaving inner SCF loop after reaching    25 steps.


  Electronic density on regular grids:       -655.9999999993        0.0000000007
  Core density on regular grids:              655.9999999997       -0.0000000003
  Total charge density on r-space grids:        0.0000000003
  Total charge density g-space grids:           0.0000000003

  Overlap energy of the core charge distribution:               0.00000062846105
  Self energy of the core charge distribution:              -4144.80997841715816
  Core Hamiltonian energy:                                   1116.69538105316769
  Hartree energy:                                            1614.11787369051126
  Exchange-correlation energy:                               -346.75013756983003
  Dispersion energy:                                           -0.49004314021193

  Total energy:                                             -1761.23690375506044

  outer SCF iter =    2 RMS gradient =   0.21E-05 energy =      -1761.2369037551

  ----------------------------------- OT ---------------------------------------
  Minimizer      : DIIS                : direct inversion
                                         in the iterative subspace
                                         using   7 DIIS vectors
                                         safer DIIS on
  Preconditioner : FULL_KINETIC        : inversion of T + eS
  Precond_solver : DEFAULT
  stepsize       :    0.15000000                  energy_gap     :    0.20000000
  eps_taylor     :   0.10000E-15                  max_taylor     :             4
  ----------------------------------- OT ---------------------------------------

  Step     Update method      Time    Convergence         Total energy    Change
  ------------------------------------------------------------------------------
     1 OT DIIS     0.15E+00    3.6     0.00000238     -1761.2369052218 -1.47E-06
     2 OT DIIS     0.15E+00    1.6     0.00000195     -1761.2369055869 -3.65E-07
     3 OT DIIS     0.15E+00    1.6     0.00000136     -1761.2369061236 -5.37E-07
     4 OT DIIS     0.15E+00    1.7     0.00000095     -1761.2369064116 -2.88E-07
     5 OT DIIS     0.15E+00    1.6     0.00000052     -1761.2369066394 -2.28E-07
     6 OT DIIS     0.15E+00    1.7     0.00000040     -1761.2369066794 -4.00E-08
     7 OT DIIS     0.15E+00    1.6     0.00000023     -1761.2369067188 -3.94E-08
     8 OT DIIS     0.15E+00    1.6     0.00000016     -1761.2369067286 -9.78E-09
     9 OT DIIS     0.15E+00    1.7     0.00000011     -1761.2369067336 -4.95E-09
    10 OT DIIS     0.15E+00    1.7     0.00000007     -1761.2369067366 -3.05E-09

  *** SCF run converged in    10 steps ***


  Electronic density on regular grids:       -655.9999999993        0.0000000007
  Core density on regular grids:              655.9999999997       -0.0000000003
  Total charge density on r-space grids:        0.0000000003
  Total charge density g-space grids:           0.0000000003

  Overlap energy of the core charge distribution:               0.00000062846105
  Self energy of the core charge distribution:              -4144.80997841715816
  Core Hamiltonian energy:                                   1116.69625126787241
  Hartree energy:                                            1614.11711304161213
  Exchange-correlation energy:                               -346.75025011719197
  Dispersion energy:                                           -0.49004314021193

  Total energy:                                             -1761.23690673661667

  outer SCF iter =    3 RMS gradient =   0.68E-07 energy =      -1761.2369067366
  outer SCF loop converged in   3 iterations or   60 steps


 ENERGY| Total FORCE_EVAL ( QS ) energy [a.u.]:            -1761.236906737552545

 ATOMIC FORCES in [a.u.]

 # Atom   Kind   Element          X              Y              Z
      1      1      Ca         -0.00667965    -0.00100508     0.00256037
      2      1      Ca          0.00099453     0.00042266     0.00008577
      3      1      Ca         -0.00900026     0.00329917     0.00212538
      4      1      Ca          0.00258629     0.00071187    -0.00011978
      5      2      Si          0.00212783     0.00081280     0.00270498
      6      2      Si          0.00512842     0.00024056    -0.00522335
      7      2      Si          0.00268786     0.00012963    -0.00167407
      8      3      O           0.03342589     0.00506774     0.01307951
      9      3      O          -0.00132894    -0.00056379    -0.00094184
     10      3      O          -0.00147795     0.00081878     0.00132073
     11      3      O           0.00555400     0.00081908     0.00329762
     12      3      O           0.00710026    -0.00986415    -0.00352010
     13      3      O          -0.00179633     0.00060117     0.00044983
     14      3      O          -0.00317853     0.00054318     0.00073508
     15      3      O           0.00144029     0.00092720    -0.00109473
     16      3      O          -0.00218159    -0.00054969     0.00052977
     17      3      O           0.00254415     0.00086052     0.00259426
     18      3      O           0.00028521    -0.00070728    -0.00124044
     19      3      O           0.00704254    -0.00208104    -0.00095007
     20      3      O          -0.00120362    -0.00029793     0.00080372
     21      3      O          -0.00086436    -0.00198452    -0.00045990
     22      3      O           0.01002767     0.00232919    -0.00824779
     23      3      O           0.00399476    -0.00016271     0.00082750
     24      1      Ca          0.00690449     0.00105777    -0.00083659
     25      1      Ca         -0.00049173    -0.00034258     0.00107483
     26      1      Ca          0.00784573     0.00004114    -0.00141537
     27      1      Ca         -0.00053154    -0.00033423    -0.00006979
     28      2      Si          0.03130006    -0.00247690     0.00133032
     29      2      Si         -0.00313179    -0.00095000     0.00189444
     30      2      Si         -0.00198303    -0.00105724     0.00211524
     31      3      O          -0.01031939     0.00054539    -0.00096338
     32      3      O           0.00306469     0.00121645     0.00038781
     33      3      O          -0.00081702    -0.00028057    -0.00071604
     34      3      O          -0.00562058    -0.00092430    -0.00173892
     35      3      O           0.00099643     0.00060617     0.00044346
     36      3      O           0.00295725     0.00077608     0.00008774
     37      3      O           0.00187874     0.00012881    -0.00019206
     38      3      O           0.00054194     0.00024610     0.00207679
     39      3      O           0.00323867    -0.00004930    -0.00075739
     40      3      O          -0.00200973    -0.00072648    -0.00253682
     41      3      O          -0.00201192     0.00025194     0.00002816
     42      3      O          -0.00553719    -0.00086463    -0.00021336
     43      3      O           0.00194191     0.00103000    -0.00151625
     44      3      O           0.00033800    -0.00053895    -0.00031478
     45      3      O          -0.00499387    -0.00006023     0.00365802
     46      3      O          -0.00128963    -0.00057038     0.00072566
     47      1      Ca         -0.00660779     0.00170445    -0.00256742
     48      1      Ca         -0.00584453    -0.00182863     0.00218862
     49      1      Ca          0.00057692     0.00024034    -0.00043277
     50      1      Ca         -0.00999108     0.00331491     0.00239522
     51      1      Ca          0.00107405     0.00054106     0.00040394
     52      2      Si         -0.03100900     0.00370469    -0.00265627
     53      2      Si          0.00365249     0.00118095    -0.00257273
     54      2      Si          0.00191746     0.00102119    -0.00254223
     55      3      O           0.00736077    -0.00108571     0.00242166
     56      3      O          -0.00447575    -0.00249608    -0.00069502
     57      3      O          -0.00338119    -0.00088467     0.00053289
     58      3      O           0.00353891     0.00089514     0.00207126
     59      3      O          -0.00181730    -0.00068479    -0.00097909
     60      3      O           0.00023833    -0.00078222     0.00048654
     61      3      O          -0.00200329     0.00007323    -0.00009313
     62      3      O           0.00410567     0.00115294    -0.00149648
     63      3      O           0.00079394    -0.00067641     0.00065523
     64      3      O           0.00356507     0.00161515     0.00376954
     65      3      O          -0.00312557    -0.00081617    -0.00122655
     66      3      O           0.00373751    -0.00092764    -0.00042509
     67      3      O           0.00127133    -0.00037476     0.00096489
     68      3      O           0.00137693    -0.00006781     0.00035172
     69      3      O           0.00359827     0.00074636    -0.00491435
     70      3      O           0.00488998    -0.00082889     0.00012265
     71      1      Ca          0.00758474     0.00030108    -0.00128689
     72      1      Ca         -0.00074595    -0.00013353     0.00036004
     73      1      Ca          0.00701819    -0.00018807    -0.00054920
     74      1      Ca         -0.00186660    -0.00034114     0.00034833
     75      2      Si         -0.00275200    -0.00082224    -0.00336635
     76      2      Si         -0.00431765     0.00021825     0.00455302
     77      2      Si         -0.00240557    -0.00017124     0.00108692
     78      3      O          -0.03367925    -0.00661653    -0.01175266
     79      3      O           0.00203547     0.00159936     0.00045410
     80      3      O          -0.00067866    -0.00017949    -0.00188484
     81      3      O          -0.00783091    -0.00066732    -0.00270082
     82      3      O          -0.00571874     0.01020062     0.00456893
     83      3      O          -0.00038707    -0.00011069     0.00030114
     84      3      O          -0.00105641    -0.00100000    -0.00038471
     85      3      O          -0.00326805     0.00010718     0.00161763
     86      3      O           0.00139692    -0.00007100    -0.00040577
     87      3      O          -0.00164127    -0.00039428    -0.00174376
     88      3      O          -0.00027152     0.00106607    -0.00022432
     89      3      O          -0.00345295    -0.00039025    -0.00007526
     90      3      O           0.00029206    -0.00003516    -0.00110554
     91      3      O          -0.00039780     0.00027765    -0.00027421
     92      3      O          -0.00543988    -0.00173530     0.00640278
     93      3      O          -0.00482155    -0.00020261     0.00110131
     94      1      Ca         -0.00625253     0.00042149    -0.00324471
     95      4      H           0.00090788     0.00010800    -0.00041073
     96      4      H           0.00005414     0.00021531     0.00014632
     97      4      H           0.00110924     0.00036962     0.00043362
     98      4      H           0.00071122     0.00145189     0.00019537
     99      4      H           0.00023017    -0.00390173     0.00232695
    100      4      H          -0.00049608     0.00073416     0.00492112
    101      4      H           0.00055093    -0.00075923    -0.00011103
    102      4      H          -0.00031957    -0.00005586     0.00104965
    103      4      H           0.00034214    -0.00046682     0.00089850
    104      4      H          -0.00115803    -0.00041178     0.00004031
    105      4      H           0.00049006     0.00081848     0.00001132
    106      4      H           0.00003381     0.00025813    -0.00003845
    107      4      H          -0.00148346    -0.00089068    -0.00227353
    108      4      H           0.00069378     0.00134648    -0.00106545
    109      4      H           0.00037475     0.00058464     0.00065913
    110      4      H           0.00071007    -0.00059972    -0.00035761
    111      4      H           0.00001263     0.00007497    -0.00032510
    112      4      H           0.00038603     0.00003476     0.00005684
    113      4      H           0.00035650     0.00006044     0.00030972
    114      4      H          -0.00014383     0.00009376     0.00017765
    115      4      H          -0.00075474    -0.00185294     0.00111211
    116      4      H           0.00098254     0.00034361     0.00230729
    117      4      H           0.00064044    -0.00145199    -0.00043338
    118      4      H          -0.00030084    -0.00032071     0.00118358
    119      4      H          -0.00103257    -0.00034620    -0.00002511
    120      4      H          -0.00224926     0.00040114     0.00055125
    121      4      H           0.00036755     0.00094266    -0.00009194
    122      4      H          -0.00049322    -0.00056459    -0.00002833
    123      4      H          -0.00046814    -0.00110920    -0.00406901
    124      4      H           0.00014330     0.00269855    -0.00131186
    125      4      H           0.00029738     0.00063056     0.00079140
    126      4      H           0.00068614    -0.00076360    -0.00059770
    127      4      H          -0.00002990    -0.00009103     0.00043266
    128      4      H          -0.00010536     0.00005601     0.00032743
    129      4      H           0.00268262    -0.00054137    -0.00125975
    130      4      H          -0.00019804     0.00032175    -0.00026013
    131      4      H          -0.00001608     0.00001923    -0.00055044
    132      4      H          -0.00065756     0.00017476    -0.00115092
    133      4      H           0.00032119    -0.00034039     0.00040466
    134      4      H          -0.00001036     0.00014881     0.00035897
    135      4      H           0.00276894    -0.00073928    -0.00113698
    136      4      H           0.00000959     0.00009731    -0.00042089
    137      4      H          -0.00008832     0.00000060    -0.00049913
    138      4      H          -0.00066103     0.00032969    -0.00122273
 SUM OF ATOMIC FORCES          -0.01051928     0.00006911    -0.00119197     0.01058682

 STRESS| Analytical stress tensor [GPa]
 STRESS|                        x                   y                   z
 STRESS|      x       -9.62608257168E-01   3.75036874909E-01   3.58994731539E-01
 STRESS|      y        3.75036874909E-01  -4.11435036912E-01   5.85107837740E-02
 STRESS|      z        3.58994731539E-01   5.85107837740E-02  -3.57226228888E-01
 STRESS| 1/3 Trace                                            -5.77089840989E-01
 STRESS| Determinant                                          -1.91594525264E-02

 STRESS| Eigenvectors and eigenvalues of the analytical stress tensor [GPa]
 STRESS|                        1                   2                   3
 STRESS| Eigenvalues  -1.25378822317E+00  -4.42985226141E-01  -3.44960736568E-02
 STRESS|      x           0.872045449052     -0.046553630602      0.487205802782
 STRESS|      y          -0.365659909552     -0.723645980202      0.585345475667
 STRESS|      z          -0.325314563666      0.688599487957      0.648074980116

 OPT| **************************************************************************
 OPT| Step number                                                              0
 OPT| Optimization method                                                   BFGS
 OPT| Total energy [hartree]                                    -1761.2369067376
 OPT| Used time [s]                                                      107.013
 OPT| **************************************************************************
 OPT| Estimated peak process memory [MiB]                                    447

 --------------------------
 OPTIMIZATION STEP:      1
 --------------------------

 Number of electrons:                                                        656
 Number of occupied orbitals:                                                328
 Number of molecular orbitals:                                               328

 Number of orbital functions:                                               1460
 Number of independent orbital functions:                                   1460

 Extrapolation method: ASPC


 SCF WAVEFUNCTION OPTIMIZATION

  ----------------------------------- OT ---------------------------------------
  Minimizer      : DIIS                : direct inversion
                                         in the iterative subspace
                                         using   7 DIIS vectors
                                         safer DIIS on
  Preconditioner : FULL_KINETIC        : inversion of T + eS
  Precond_solver : DEFAULT
  stepsize       :    0.15000000                  energy_gap     :    0.20000000
  eps_taylor     :   0.10000E-15                  max_taylor     :             4
  ----------------------------------- OT ---------------------------------------

  Step     Update method      Time    Convergence         Total energy    Change
  ------------------------------------------------------------------------------
     1 OT DIIS     0.15E+00    1.0     0.00020522     -1761.2407549959 -1.76E+03
     2 OT DIIS     0.15E+00    1.7     0.00012694     -1761.2431358660 -2.38E-03
     3 OT DIIS     0.15E+00    1.7     0.00007605     -1761.2447226237 -1.59E-03
     4 OT DIIS     0.15E+00    1.7     0.00004373     -1761.2456965948 -9.74E-04
     5 OT DIIS     0.15E+00    2.1     0.00002977     -1761.2460452458 -3.49E-04
     6 OT DIIS     0.15E+00    1.6     0.00002082     -1761.2462097282 -1.64E-04
     7 OT DIIS     0.15E+00    1.7     0.00001270     -1761.2463083134 -9.86E-05
     8 OT DIIS     0.15E+00    1.7     0.00000818     -1761.2463411271 -3.28E-05
     9 OT DIIS     0.15E+00    1.7     0.00000577     -1761.2463520529 -1.09E-05
    10 OT DIIS     0.15E+00    1.7     0.00000376     -1761.2463582323 -6.18E-06
    11 OT DIIS     0.15E+00    1.7     0.00000255     -1761.2463608720 -2.64E-06
    12 OT DIIS     0.15E+00    1.7     0.00000171     -1761.2463621464 -1.27E-06
    13 OT DIIS     0.15E+00    1.7     0.00000114     -1761.2463627306 -5.84E-07
    14 OT DIIS     0.15E+00    1.7     0.00000074     -1761.2463629887 -2.58E-07
    15 OT DIIS     0.15E+00    1.7     0.00000052     -1761.2463630830 -9.43E-08
    16 OT DIIS     0.15E+00    1.7     0.00000036     -1761.2463631296 -4.66E-08
    17 OT DIIS     0.15E+00    1.6     0.00000026     -1761.2463631483 -1.87E-08
    18 OT DIIS     0.15E+00    1.6     0.00000020     -1761.2463631579 -9.62E-09
    19 OT DIIS     0.15E+00    1.7     0.00000014     -1761.2463631640 -6.04E-09
    20 OT DIIS     0.15E+00    1.7     0.00000011     -1761.2463631669 -2.94E-09
    21 OT DIIS     0.15E+00    1.6     0.00000008     -1761.2463631687 -1.80E-09

  *** SCF run converged in    21 steps ***


  Electronic density on regular grids:       -655.9999999993        0.0000000007
  Core density on regular grids:              655.9999999997       -0.0000000003
  Total charge density on r-space grids:        0.0000000003
  Total charge density g-space grids:           0.0000000003

  Overlap energy of the core charge distribution:               0.00000060114429
  Self energy of the core charge distribution:              -4144.80997841715816
  Core Hamiltonian energy:                                   1116.56712585979244
  Hartree energy:                                            1614.20728361064880
  Exchange-correlation energy:                               -346.72066576196414
  Dispersion energy:                                           -0.49012906116105

  Total energy:                                             -1761.24636316869828

  outer SCF iter =    1 RMS gradient =   0.83E-07 energy =      -1761.2463631687
  outer SCF loop converged in   1 iterations or   21 steps


 ENERGY| Total FORCE_EVAL ( QS ) energy [a.u.]:            -1761.246363169867664

 ATOMIC FORCES in [a.u.]

 # Atom   Kind   Element          X              Y              Z
      1      1      Ca          0.00019677     0.00245913    -0.00041862
      2      1      Ca         -0.00094876    -0.00004004    -0.00006121
      3      1      Ca         -0.00021439    -0.00037958    -0.00105539
      4      1      Ca         -0.00022111    -0.00070435     0.00013109
      5      2      Si         -0.00118300     0.00002236    -0.00104437
      6      2      Si         -0.00145708    -0.00053326    -0.00063610
      7      2      Si         -0.00087658    -0.00100003     0.00041780
      8      3      O           0.01550823     0.00454053     0.00699506
      9      3      O           0.00034997     0.00060970     0.00051761
     10      3      O          -0.00125561    -0.00355183     0.00032419
     11      3      O           0.00195979     0.00091134    -0.00108858
     12      3      O           0.00704556    -0.00306309    -0.00061282
     13      3      O           0.00140295    -0.00073353     0.00141787
     14      3      O           0.00294913     0.00170030    -0.00112714
     15      3      O           0.00328502     0.00048076     0.00006481
     16      3      O          -0.00059308     0.00049940     0.00046884
     17      3      O           0.00288888     0.00091798     0.00024052
     18      3      O           0.00026229    -0.00040822     0.00052115
     19      3      O          -0.00054110     0.00036881     0.00019930
     20      3      O          -0.00023427     0.00038791    -0.00067775
     21      3      O           0.00149145    -0.00003669     0.00042577
     22      3      O           0.00025526     0.00150958    -0.00066788
     23      3      O          -0.00004533    -0.00009268     0.00038220
     24      1      Ca         -0.00000499    -0.00180884    -0.00043026
     25      1      Ca          0.00025042    -0.00035923    -0.00037989
     26      1      Ca          0.00124203    -0.00137555     0.00034630
     27      1      Ca          0.00017628     0.00028903    -0.00010130
     28      2      Si          0.02212478     0.00005849     0.00644561
     29      2      Si          0.00196992     0.00138813    -0.00053522
     30      2      Si          0.00188959     0.00061254    -0.00044955
     31      3      O           0.00083818    -0.00090218    -0.00065706
     32      3      O           0.00120652     0.00198427    -0.00069699
     33      3      O          -0.00119779     0.00054714    -0.00069781
     34      3      O          -0.00211142    -0.00125532     0.00152544
     35      3      O          -0.00248749    -0.00312811    -0.00050143
     36      3      O          -0.00158809     0.00172970    -0.00217311
     37      3      O          -0.00266412    -0.00056186     0.00161698
     38      3      O          -0.00147276    -0.00050624    -0.00032839
     39      3      O           0.00209892    -0.00026657    -0.00026524
     40      3      O          -0.00239439    -0.00107666     0.00106377
     41      3      O           0.00097563     0.00020808     0.00056292
     42      3      O          -0.00065664     0.00113256    -0.00090739
     43      3      O           0.00148868    -0.00012745     0.00100396
     44      3      O           0.00043614    -0.00019669    -0.00061707
     45      3      O          -0.00002544    -0.00150256    -0.00106187
     46      3      O           0.00046231     0.00047024    -0.00140918
     47      1      Ca         -0.00096625    -0.00054397     0.00095628
     48      1      Ca         -0.00142740     0.00330335    -0.00062860
     49      1      Ca         -0.00145780     0.00021547     0.00049182
     50      1      Ca         -0.00082392    -0.00011559    -0.00145996
     51      1      Ca         -0.00031267    -0.00050660    -0.00007659
     52      2      Si         -0.01985065     0.00167983    -0.00526299
     53      2      Si         -0.00074558    -0.00012193    -0.00088212
     54      2      Si         -0.00089555    -0.00150710     0.00052251
     55      3      O          -0.00193268     0.00025909     0.00046135
     56      3      O           0.00016480     0.00023374     0.00076855
     57      3      O          -0.00188743    -0.00131715     0.00090562
     58      3      O           0.00356480     0.00015917    -0.00054710
     59      3      O           0.00103873     0.00195180     0.00056554
     60      3      O           0.00236678    -0.00036116     0.00117061
     61      3      O           0.00023052     0.00099611    -0.00064304
     62      3      O           0.00233514     0.00020286    -0.00121937
     63      3      O          -0.00177604     0.00132899     0.00002979
     64      3      O           0.00353537     0.00103391     0.00029806
     65      3      O           0.00154375    -0.00019098     0.00069448
     66      3      O           0.00043839    -0.00123991    -0.00016154
     67      3      O          -0.00074108     0.00041986    -0.00096668
     68      3      O           0.00084451     0.00058483     0.00019747
     69      3      O           0.00025575     0.00122317     0.00002205
     70      3      O          -0.00104212     0.00111841     0.00032070
     71      1      Ca         -0.00012189    -0.00175818    -0.00058116
     72      1      Ca          0.00062517    -0.00061257    -0.00051947
     73      1      Ca          0.00012296    -0.00050139     0.00007305
     74      1      Ca          0.00018876     0.00083337    -0.00028920
     75      2      Si          0.00057250     0.00164624     0.00213245
     76      2      Si          0.00105035     0.00139340    -0.00050263
     77      2      Si          0.00010670     0.00052824     0.00013836
     78      3      O          -0.01635389    -0.00459271    -0.00653864
     79      3      O           0.00175071     0.00107343    -0.00056477
     80      3      O          -0.00059209    -0.00032246    -0.00109044
     81      3      O          -0.00395290    -0.00169800     0.00181811
     82      3      O          -0.00751317     0.00340964     0.00047312
     83      3      O          -0.00112921     0.00122234    -0.00150564
     84      3      O          -0.00200214    -0.00143456     0.00133590
     85      3      O          -0.00162898    -0.00076915    -0.00005307
     86      3      O           0.00053170     0.00040099     0.00056681
     87      3      O          -0.00308973    -0.00132918    -0.00011212
     88      3      O           0.00016468     0.00031207     0.00034188
     89      3      O          -0.00217455     0.00076555    -0.00090374
     90      3      O           0.00082667     0.00044195     0.00236777
     91      3      O          -0.00058414    -0.00099143    -0.00030260
     92      3      O          -0.00263339    -0.00030699    -0.00067558
     93      3      O           0.00261066     0.00058003    -0.00119144
     94      1      Ca         -0.00168651    -0.00005357     0.00160282
     95      4      H          -0.00009490    -0.00023822    -0.00049946
     96      4      H          -0.00023836    -0.00021317     0.00070477
     97      4      H          -0.00028974    -0.00065701     0.00019109
     98      4      H           0.00001020     0.00055746     0.00015128
     99      4      H           0.00145407    -0.00109861     0.00010815
    100      4      H           0.00192228    -0.00036894     0.00097535
    101      4      H           0.00105546    -0.00017864     0.00080365
    102      4      H           0.00035821    -0.00002149    -0.00081692
    103      4      H           0.00012886     0.00069158    -0.00072438
    104      4      H           0.00035161    -0.00027137    -0.00042226
    105      4      H           0.00010595    -0.00013272     0.00015119
    106      4      H           0.00035455     0.00010318     0.00021496
    107      4      H          -0.00126479     0.00101235    -0.00093994
    108      4      H          -0.00110424     0.00087063     0.00077387
    109      4      H          -0.00036613    -0.00044578     0.00031234
    110      4      H          -0.00091346     0.00084664     0.00091490
    111      4      H           0.00125016    -0.00008397     0.00039854
    112      4      H          -0.00003123    -0.00024010     0.00018522
    113      4      H           0.00060559    -0.00155182     0.00016824
    114      4      H           0.00058931     0.00048741     0.00018010
    115      4      H           0.00022924    -0.00043997    -0.00042187
    116      4      H           0.00099106    -0.00053356     0.00048568
    117      4      H           0.00198436    -0.00087702     0.00067843
    118      4      H           0.00071289    -0.00025705    -0.00102118
    119      4      H          -0.00093160     0.00082970    -0.00148745
    120      4      H          -0.00070448    -0.00031658    -0.00030968
    121      4      H          -0.00017131     0.00054821     0.00011128
    122      4      H          -0.00062085    -0.00002498     0.00012942
    123      4      H          -0.00102696     0.00021024    -0.00120655
    124      4      H          -0.00106344     0.00024667     0.00067309
    125      4      H          -0.00138938     0.00000898     0.00064673
    126      4      H          -0.00205345     0.00074520     0.00051698
    127      4      H          -0.00093449    -0.00046133    -0.00048915
    128      4      H          -0.00014164    -0.00024300    -0.00052909
    129      4      H           0.00297951     0.00011541    -0.00020185
    130      4      H           0.00102784     0.00059416     0.00075864
    131      4      H          -0.00012288     0.00017574     0.00030908
    132      4      H          -0.00185279    -0.00054103    -0.00009138
    133      4      H          -0.00155781    -0.00078646    -0.00076655
    134      4      H          -0.00059938     0.00011017    -0.00035715
    135      4      H           0.00189261    -0.00001244     0.00010210
    136      4      H           0.00092784     0.00039437     0.00059030
    137      4      H           0.00004652     0.00041241     0.00039155
    138      4      H          -0.00097966    -0.00031597    -0.00020363
 SUM OF ATOMIC FORCES          -0.00134597     0.00490995    -0.00121538     0.00523416

 STRESS| Analytical stress tensor [GPa]
 STRESS|                        x                   y                   z
 STRESS|      x       -1.26507296422E+00   1.85717906827E-01   8.47269512432E-02
 STRESS|      y        1.85717906827E-01  -4.83997088352E-01   1.30867812224E-02
 STRESS|      z        8.47269512432E-02   1.30867812224E-02  -4.32082479156E-01
 STRESS| 1/3 Trace                                            -7.27050843909E-01
 STRESS| Determinant                                          -2.45554509153E-01

 STRESS| Eigenvectors and eigenvalues of the analytical stress tensor [GPa]
 STRESS|                        1                   2                   3
 STRESS| Eigenvalues  -1.31420519276E+00  -4.65923971758E-01  -4.01023367212E-01
 STRESS|      x           0.972206775209      0.119248990683      0.201478694800
 STRESS|      y          -0.216061633790      0.788433492229      0.575925341286
 STRESS|      z          -0.090174035294     -0.603450334785      0.792285514702

 OPT| **************************************************************************
 OPT| Step number                                                              1
 OPT| Optimization method                                                   BFGS
 OPT| Total energy [hartree]                                    -1761.2463631699
 OPT| Effective energy change [hartree]                            -0.0094564323
 OPT| Predicted energy change [hartree]                            -0.0085788630
 OPT| Scaling factor                                                0.0000000000
 OPT| Step size                                                     0.0859319664
 OPT| Trust radius                                                  0.3779452266
 OPT| Decrease in energy                                                     YES
 OPT| Used time [s]                                                       39.376
 OPT|
 OPT| Maximum step size                                             0.0859319664
 OPT| Convergence limit for maximum step size                       0.0030000000
 OPT| Maximum step size is converged                                          NO
 OPT|
 OPT| RMS step size                                                 0.0179239172
 OPT| Convergence limit for RMS step size                           0.0015000000
 OPT| RMS step size is converged                                              NO
 OPT|
 OPT| Maximum gradient                                              0.0221247755
 OPT| Convergence limit for maximum gradient                        0.0004500000
 OPT| Maximum gradient is converged                                           NO
 OPT|
 OPT| RMS gradient                                                  0.0023043790
 OPT| Convergence limit for RMS gradient                            0.0003000000
 OPT| RMS gradient is converged                                               NO
 OPT| **************************************************************************
 OPT| Estimated peak process memory after this step [MiB]                    507

 --------------------------
 OPTIMIZATION STEP:      2
 --------------------------

 Number of electrons:                                                        656
 Number of occupied orbitals:                                                328
 Number of molecular orbitals:                                               328

 Number of orbital functions:                                               1460
 Number of independent orbital functions:                                   1460

 Extrapolation method: ASPC


 SCF WAVEFUNCTION OPTIMIZATION

  ----------------------------------- OT ---------------------------------------
  Minimizer      : DIIS                : direct inversion
                                         in the iterative subspace
                                         using   7 DIIS vectors
                                         safer DIIS on
  Preconditioner : FULL_KINETIC        : inversion of T + eS
  Precond_solver : DEFAULT
  stepsize       :    0.15000000                  energy_gap     :    0.20000000
  eps_taylor     :   0.10000E-15                  max_taylor     :             4
  ----------------------------------- OT ---------------------------------------

  Step     Update method      Time    Convergence         Total energy    Change
  ------------------------------------------------------------------------------
     1 OT DIIS     0.15E+00    1.1     0.00023638     -1761.2420414762 -1.76E+03
     2 OT DIIS     0.15E+00    1.7     0.00014797     -1761.2452207613 -3.18E-03
     3 OT DIIS     0.15E+00    1.7     0.00008496     -1761.2474034387 -2.18E-03
     4 OT DIIS     0.15E+00    1.7     0.00004434     -1761.2485824185 -1.18E-03
     5 OT DIIS     0.15E+00    2.0     0.00002944     -1761.2489174641 -3.35E-04
     6 OT DIIS     0.15E+00    1.7     0.00002084     -1761.2490624644 -1.45E-04
     7 OT DIIS     0.15E+00    1.7     0.00001272     -1761.2491547630 -9.23E-05
     8 OT DIIS     0.15E+00    1.7     0.00000812     -1761.2491865417 -3.18E-05
     9 OT DIIS     0.15E+00    1.7     0.00000563     -1761.2491972358 -1.07E-05
    10 OT DIIS     0.15E+00    1.7     0.00000361     -1761.2492029718 -5.74E-06
    11 OT DIIS     0.15E+00    1.7     0.00000241     -1761.2492053678 -2.40E-06
    12 OT DIIS     0.15E+00    1.7     0.00000165     -1761.2492064595 -1.09E-06
    13 OT DIIS     0.15E+00    1.7     0.00000114     -1761.2492069747 -5.15E-07
    14 OT DIIS     0.15E+00    1.7     0.00000074     -1761.2492072351 -2.60E-07
    15 OT DIIS     0.15E+00    1.7     0.00000053     -1761.2492073293 -9.42E-08
    16 OT DIIS     0.15E+00    1.7     0.00000036     -1761.2492073789 -4.96E-08
    17 OT DIIS     0.15E+00    1.7     0.00000026     -1761.2492073989 -2.00E-08
    18 OT DIIS     0.15E+00    1.7     0.00000019     -1761.2492074092 -1.03E-08
    19 OT DIIS     0.15E+00    1.7     0.00000014     -1761.2492074156 -6.33E-09
    20 OT DIIS     0.15E+00    1.7     0.00000010     -1761.2492074183 -2.70E-09
    21 OT DIIS     0.15E+00    1.7     0.00000008     -1761.2492074199 -1.63E-09

  *** SCF run converged in    21 steps ***


  Electronic density on regular grids:       -655.9999999993        0.0000000007
  Core density on regular grids:              655.9999999997       -0.0000000003
  Total charge density on r-space grids:        0.0000000003
  Total charge density g-space grids:           0.0000000003

  Overlap energy of the core charge distribution:               0.00000058645277
  Self energy of the core charge distribution:              -4144.80997841715816
  Core Hamiltonian energy:                                   1116.52688746059857
  Hartree energy:                                            1614.23636584965539
  Exchange-correlation energy:                               -346.71231329377463
  Dispersion energy:                                           -0.49016960566137

  Total energy:                                             -1761.24920741988717

  outer SCF iter =    1 RMS gradient =   0.79E-07 energy =      -1761.2492074199
  outer SCF loop converged in   1 iterations or   21 steps


 ENERGY| Total FORCE_EVAL ( QS ) energy [a.u.]:            -1761.249207420924677

 ATOMIC FORCES in [a.u.]

 # Atom   Kind   Element          X              Y              Z
      1      1      Ca          0.00086125     0.00060739    -0.00053559
      2      1      Ca         -0.00083907    -0.00018163    -0.00020897
      3      1      Ca          0.00113182    -0.00040823    -0.00122673
      4      1      Ca         -0.00123740    -0.00065640    -0.00043815
      5      2      Si          0.00088199     0.00014765     0.00026046
      6      2      Si          0.00158825     0.00048704     0.00156003
      7      2      Si          0.00024070     0.00093231    -0.00018015
      8      3      O           0.00410197     0.00159896     0.00164815
      9      3      O           0.00058364     0.00033788     0.00019193
     10      3      O           0.00014414     0.00067125    -0.00108572
     11      3      O          -0.00002516    -0.00069005     0.00065954
     12      3      O           0.00277282    -0.00298378    -0.00215802
     13      3      O           0.00074459     0.00121699    -0.00023075
     14      3      O          -0.00131900    -0.00107612    -0.00048757
     15      3      O           0.00256279    -0.00038399     0.00041410
     16      3      O           0.00080738    -0.00052473     0.00053419
     17      3      O           0.00090398    -0.00007439     0.00027192
     18      3      O           0.00016453     0.00035995     0.00077036
     19      3      O          -0.00044843     0.00033807    -0.00000166
     20      3      O           0.00017215     0.00021448    -0.00056252
     21      3      O           0.00058321     0.00040600     0.00025134
     22      3      O          -0.00181243    -0.00036901     0.00203707
     23      3      O          -0.00084589    -0.00041675     0.00075937
     24      1      Ca         -0.00083256    -0.00095095     0.00043149
     25      1      Ca          0.00090397     0.00000689    -0.00023601
     26      1      Ca         -0.00004322    -0.00029444     0.00093830
     27      1      Ca          0.00092537     0.00039798     0.00044350
     28      2      Si          0.00948212     0.00017680     0.00388571
     29      2      Si         -0.00136915     0.00018336     0.00042991
     30      2      Si         -0.00123059    -0.00067989     0.00063229
     31      3      O           0.00110630    -0.00000669     0.00025238
     32      3      O           0.00048757     0.00245469    -0.00013877
     33      3      O          -0.00106797     0.00010364     0.00122178
     34      3      O          -0.00081919     0.00046082    -0.00144873
     35      3      O           0.00109047     0.00062981     0.00054347
     36      3      O          -0.00010997    -0.00038168     0.00009261
     37      3      O           0.00159613     0.00050201    -0.00095898
     38      3      O          -0.00012107    -0.00011124    -0.00045676
     39      3      O          -0.00053621     0.00111165     0.00028367
     40      3      O           0.00193193     0.00023451    -0.00149650
     41      3      O          -0.00064723    -0.00019434    -0.00033507
     42      3      O           0.00179779    -0.00078912     0.00091009
     43      3      O           0.00089923    -0.00044993     0.00071634
     44      3      O           0.00093507     0.00050142     0.00036547
     45      3      O           0.00043970     0.00116160    -0.00014729
     46      3      O           0.00077421    -0.00063974    -0.00024435
     47      1      Ca          0.00126901    -0.00087830     0.00037649
     48      1      Ca          0.00036598     0.00047280    -0.00069926
     49      1      Ca         -0.00129977    -0.00097429     0.00010166
     50      1      Ca          0.00089122     0.00000870    -0.00122639
     51      1      Ca         -0.00083567    -0.00023918    -0.00015727
     52      2      Si         -0.00844758     0.00082172    -0.00264880
     53      2      Si          0.00049545    -0.00032517    -0.00041989
     54      2      Si         -0.00059208     0.00024270    -0.00035562
     55      3      O          -0.00147590     0.00081658    -0.00062859
     56      3      O           0.00107868     0.00052502     0.00056201
     57      3      O          -0.00001459    -0.00026474     0.00039208
     58      3      O           0.00157293    -0.00046771     0.00092002
     59      3      O           0.00016614    -0.00026593    -0.00108028
     60      3      O           0.00147823     0.00104844    -0.00115096
     61      3      O          -0.00006946     0.00022992     0.00042376
     62      3      O          -0.00033806    -0.00078690     0.00068925
     63      3      O           0.00038403    -0.00028942     0.00091021
     64      3      O           0.00102984    -0.00128297    -0.00101794
     65      3      O           0.00008221     0.00045705     0.00064210
     66      3      O           0.00139621    -0.00007193    -0.00027486
     67      3      O          -0.00070908     0.00008346    -0.00110902
     68      3      O           0.00086516    -0.00063746    -0.00006651
     69      3      O          -0.00000841    -0.00000692     0.00084749
     70      3      O          -0.00121083     0.00004712     0.00119587
     71      1      Ca         -0.00205561    -0.00046251     0.00103049
     72      1      Ca          0.00051451     0.00064764    -0.00061980
     73      1      Ca         -0.00025589    -0.00026902     0.00026779
     74      1      Ca          0.00085815     0.00044913    -0.00001994
     75      2      Si         -0.00056791    -0.00005915     0.00095419
     76      2      Si         -0.00045740    -0.00056344    -0.00058544
     77      2      Si         -0.00055282    -0.00037828     0.00059347
     78      3      O          -0.00330654    -0.00227581    -0.00301365
     79      3      O          -0.00117082    -0.00017086    -0.00060526
     80      3      O          -0.00173433    -0.00144171     0.00046418
     81      3      O           0.00159800     0.00102830    -0.00077030
     82      3      O          -0.00413279     0.00294248     0.00091579
     83      3      O           0.00014220    -0.00071310     0.00062098
     84      3      O           0.00129840     0.00061630    -0.00047128
     85      3      O           0.00057424     0.00009478    -0.00004235
     86      3      O          -0.00043533     0.00035229    -0.00061856
     87      3      O          -0.00152687     0.00002662    -0.00060672
     88      3      O          -0.00008364    -0.00006660    -0.00021007
     89      3      O          -0.00200601    -0.00048942     0.00087142
     90      3      O           0.00045703    -0.00048212     0.00071536
     91      3      O           0.00010769     0.00120651    -0.00012395
     92      3      O          -0.00139195     0.00117229    -0.00252822
     93      3      O          -0.00014933    -0.00043689    -0.00097736
     94      1      Ca          0.00100631    -0.00013545     0.00084171
     95      4      H          -0.00073839    -0.00000638    -0.00056458
     96      4      H          -0.00042599    -0.00025247     0.00057453
     97      4      H          -0.00016631    -0.00028287     0.00003141
     98      4      H           0.00028797    -0.00036239     0.00034003
     99      4      H           0.00071077     0.00062900    -0.00028555
    100      4      H           0.00306866     0.00022003    -0.00177450
    101      4      H           0.00102920     0.00020329     0.00028694
    102      4      H           0.00051664     0.00014658    -0.00089968
    103      4      H           0.00064595     0.00085229    -0.00110855
    104      4      H           0.00110120    -0.00008169    -0.00026785
    105      4      H          -0.00025260    -0.00052879    -0.00020352
    106      4      H           0.00034338    -0.00012737    -0.00001683
    107      4      H          -0.00128227    -0.00006926    -0.00012951
    108      4      H          -0.00041831     0.00004333    -0.00030060
    109      4      H          -0.00056201    -0.00010363    -0.00045100
    110      4      H          -0.00107678     0.00118997     0.00017550
    111      4      H           0.00085119     0.00001127     0.00060781
    112      4      H          -0.00021717    -0.00017110     0.00022960
    113      4      H           0.00037734    -0.00042681    -0.00004088
    114      4      H           0.00023874     0.00015066     0.00016838
    115      4      H           0.00024874     0.00015197    -0.00001387
    116      4      H           0.00119784     0.00011699    -0.00081484
    117      4      H           0.00120715    -0.00001805    -0.00046447
    118      4      H           0.00033174     0.00053860    -0.00107636
    119      4      H          -0.00017067     0.00124051    -0.00137610
    120      4      H           0.00040179    -0.00020677     0.00001783
    121      4      H          -0.00060633    -0.00100607    -0.00014039
    122      4      H          -0.00012760    -0.00005152     0.00016568
    123      4      H          -0.00240698     0.00062777     0.00097897
    124      4      H          -0.00117173    -0.00082719     0.00021666
    125      4      H          -0.00072705    -0.00012011    -0.00036142
    126      4      H          -0.00131744     0.00087500     0.00085948
    127      4      H          -0.00087116    -0.00033692    -0.00031126
    128      4      H          -0.00007342    -0.00030698    -0.00051171
    129      4      H           0.00163434     0.00024036    -0.00002012
    130      4      H           0.00141225     0.00080360     0.00056900
    131      4      H           0.00012188     0.00022814     0.00070028
    132      4      H          -0.00172535    -0.00033375    -0.00004421
    133      4      H          -0.00159897    -0.00072107    -0.00046649
    134      4      H          -0.00035708    -0.00014082    -0.00021628
    135      4      H           0.00093977     0.00018108     0.00022003
    136      4      H           0.00128763     0.00048177     0.00055196
    137      4      H          -0.00009099     0.00038685     0.00052423
    138      4      H          -0.00148054    -0.00041649    -0.00008385
 SUM OF ATOMIC FORCES           0.01020254     0.00425520    -0.00449081     0.01193172

 STRESS| Analytical stress tensor [GPa]
 STRESS|                        x                   y                   z
 STRESS|      x       -1.39316082483E+00   6.66833482630E-02   2.21713254658E-02
 STRESS|      y        6.66833482630E-02  -5.38585540175E-01   1.73293191438E-02
 STRESS|      z        2.21713254658E-02   1.73293191438E-02  -4.25095465623E-01
 STRESS| 1/3 Trace                                            -7.85613943543E-01
 STRESS| Determinant                                          -3.16339923389E-01

 STRESS| Eigenvectors and eigenvalues of the analytical stress tensor [GPa]
 STRESS|                        1                   2                   3
 STRESS| Eigenvalues  -1.39877591431E+00  -5.36632863480E-01  -4.21433052841E-01
 STRESS|      x           0.996814858219      0.072225738860      0.033816875679
 STRESS|      y          -0.076844977894      0.983286164149      0.165055047680
 STRESS|      z          -0.021330443199     -0.167127981016      0.985704443611

 OPT| **************************************************************************
 OPT| Step number                                                              2
 OPT| Optimization method                                                   BFGS
 OPT| Total energy [hartree]                                    -1761.2492074209
 OPT| Effective energy change [hartree]                            -0.0028442511
 OPT| Predicted energy change [hartree]                            -0.0026387660
 OPT| Scaling factor                                                0.0000000000
 OPT| Step size                                                     0.0455024243
 OPT| Trust radius                                                  0.3779452266
 OPT| Decrease in energy                                                     YES
 OPT| Used time [s]                                                       39.563
 OPT|
 OPT| Maximum step size                                             0.0455024243
 OPT| Convergence limit for maximum step size                       0.0030000000
 OPT| Maximum step size is converged                                          NO
 OPT|
 OPT| RMS step size                                                 0.0113382093
 OPT| Convergence limit for RMS step size                           0.0015000000
 OPT| RMS step size is converged                                              NO
 OPT|
 OPT| Maximum gradient                                              0.0094821233
 OPT| Convergence limit for maximum gradient                        0.0004500000
 OPT| Maximum gradient is converged                                           NO
 OPT|
 OPT| RMS gradient                                                  0.0011318093
 OPT| Convergence limit for RMS gradient                            0.0003000000
 OPT| RMS gradient is converged                                               NO
 OPT| **************************************************************************
 OPT| Estimated peak process memory after this step [MiB]                    507

 --------------------------
 OPTIMIZATION STEP:      3
 --------------------------

 Number of electrons:                                                        656
 Number of occupied orbitals:                                                328
 Number of molecular orbitals:                                               328

 Number of orbital functions:                                               1460
 Number of independent orbital functions:                                   1460

 Extrapolation method: ASPC


 SCF WAVEFUNCTION OPTIMIZATION

  ----------------------------------- OT ---------------------------------------
  Minimizer      : DIIS                : direct inversion
                                         in the iterative subspace
                                         using   7 DIIS vectors
                                         safer DIIS on
  Preconditioner : FULL_KINETIC        : inversion of T + eS
  Precond_solver : DEFAULT
  stepsize       :    0.15000000                  energy_gap     :    0.20000000
  eps_taylor     :   0.10000E-15                  max_taylor     :             4
  ----------------------------------- OT ---------------------------------------

  Step     Update method      Time    Convergence         Total energy    Change
  ------------------------------------------------------------------------------
     1 OT DIIS     0.15E+00    1.0     0.00019821     -1761.2452718165 -1.76E+03
     2 OT DIIS     0.15E+00    1.7     0.00012893     -1761.2475480695 -2.28E-03
     3 OT DIIS     0.15E+00    1.7     0.00007220     -1761.2492875667 -1.74E-03
     4 OT DIIS     0.15E+00    2.0     0.00003693     -1761.2501367013 -8.49E-04
     5 OT DIIS     0.15E+00    1.7     0.00002378     -1761.2503712220 -2.35E-04
     6 OT DIIS     0.15E+00    1.7     0.00001660     -1761.2504676063 -9.64E-05
     7 OT DIIS     0.15E+00    1.7     0.00001044     -1761.2505220598 -5.45E-05
     8 OT DIIS     0.15E+00    1.7     0.00000651     -1761.2505432827 -2.12E-05
     9 OT DIIS     0.15E+00    1.7     0.00000440     -1761.2505503130 -7.03E-06
    10 OT DIIS     0.15E+00    1.7     0.00000281     -1761.2505537512 -3.44E-06
    11 OT DIIS     0.15E+00    1.7     0.00000183     -1761.2505551965 -1.45E-06
    12 OT DIIS     0.15E+00    1.7     0.00000126     -1761.2505557940 -5.98E-07
    13 OT DIIS     0.15E+00    1.7     0.00000088     -1761.2505560783 -2.84E-07
    14 OT DIIS     0.15E+00    1.7     0.00000057     -1761.2505562325 -1.54E-07
    15 OT DIIS     0.15E+00    1.7     0.00000041     -1761.2505562873 -5.48E-08
    16 OT DIIS     0.15E+00    1.7     0.00000029     -1761.2505563164 -2.91E-08
    17 OT DIIS     0.15E+00    1.7     0.00000021     -1761.2505563296 -1.31E-08
    18 OT DIIS     0.15E+00    1.7     0.00000015     -1761.2505563363 -6.76E-09
    19 OT DIIS     0.15E+00    1.7     0.00000011     -1761.2505563404 -4.07E-09
    20 OT DIIS     0.15E+00    1.7     0.00000008     -1761.2505563422 -1.78E-09

  *** SCF run converged in    20 steps ***


  Electronic density on regular grids:       -655.9999999993        0.0000000007
  Core density on regular grids:              655.9999999997       -0.0000000003
  Total charge density on r-space grids:        0.0000000003
  Total charge density g-space grids:           0.0000000003

  Overlap energy of the core charge distribution:               0.00000058206419
  Self energy of the core charge distribution:              -4144.80997841715816
  Core Hamiltonian energy:                                   1116.53658119345619
  Hartree energy:                                            1614.22882562674044
  Exchange-correlation energy:                               -346.71582402401231
  Dispersion energy:                                           -0.49016130325937

  Total energy:                                             -1761.25055634216938

  outer SCF iter =    1 RMS gradient =   0.83E-07 energy =      -1761.2505563422
  outer SCF loop converged in   1 iterations or   20 steps


 ENERGY| Total FORCE_EVAL ( QS ) energy [a.u.]:            -1761.250556343218250

 ATOMIC FORCES in [a.u.]

 # Atom   Kind   Element          X              Y              Z
      1      1      Ca          0.00112510    -0.00102751    -0.00024954
      2      1      Ca          0.00025566    -0.00004957     0.00049726
      3      1      Ca          0.00086041     0.00039104    -0.00057580
      4      1      Ca         -0.00029997    -0.00002226     0.00046299
      5      2      Si          0.00120105     0.00022685     0.00081771
      6      2      Si         -0.00055477     0.00010703     0.00186466
      7      2      Si         -0.00053083     0.00058925     0.00006454
      8      3      O          -0.00084533     0.00003312    -0.00106338
      9      3      O           0.00001545    -0.00030850    -0.00039392
     10      3      O           0.00056595     0.00017093    -0.00007957
     11      3      O          -0.00019442    -0.00051708    -0.00051094
     12      3      O           0.00166130    -0.00117033    -0.00176458
     13      3      O           0.00106934     0.00164343    -0.00042534
     14      3      O           0.00031548    -0.00046966    -0.00022323
     15      3      O           0.00050822    -0.00087112     0.00014428
     16      3      O           0.00139063     0.00039749    -0.00011819
     17      3      O           0.00082564    -0.00070922    -0.00022343
     18      3      O          -0.00057078     0.00084294    -0.00009267
     19      3      O           0.00093565     0.00008626    -0.00022793
     20      3      O           0.00019969    -0.00002483    -0.00014724
     21      3      O          -0.00021070    -0.00024843    -0.00027265
     22      3      O          -0.00092315    -0.00020194     0.00201833
     23      3      O           0.00017634    -0.00085813     0.00038226
     24      1      Ca         -0.00119536     0.00003646     0.00049259
     25      1      Ca          0.00003432     0.00046613    -0.00054095
     26      1      Ca          0.00019106    -0.00030055     0.00017644
     27      1      Ca         -0.00011337    -0.00007878    -0.00020350
     28      2      Si          0.00142927    -0.00059139     0.00028796
     29      2      Si          0.00053735     0.00076848     0.00072975
     30      2      Si          0.00021245     0.00020712    -0.00036693
     31      3      O           0.00103815     0.00012923     0.00096027
     32      3      O          -0.00045727     0.00084801     0.00034672
     33      3      O          -0.00026845     0.00150778    -0.00035910
     34      3      O          -0.00092355     0.00048015    -0.00038536
     35      3      O           0.00074319     0.00006577    -0.00010261
     36      3      O          -0.00065106    -0.00096418     0.00130622
     37      3      O          -0.00019611    -0.00022443    -0.00024748
     38      3      O           0.00048414     0.00009758    -0.00053328
     39      3      O          -0.00008764    -0.00062115    -0.00034543
     40      3      O           0.00098320     0.00072195     0.00071838
     41      3      O           0.00068023    -0.00029034    -0.00013782
     42      3      O           0.00131228     0.00007314     0.00019143
     43      3      O           0.00097815    -0.00066658     0.00077264
     44      3      O           0.00054695     0.00019200     0.00075615
     45      3      O           0.00014728    -0.00004359    -0.00014469
     46      3      O           0.00000287    -0.00056574     0.00034146
     47      1      Ca          0.00103716    -0.00023195     0.00001271
     48      1      Ca          0.00114149    -0.00091996     0.00011196
     49      1      Ca         -0.00046598    -0.00019489     0.00018713
     50      1      Ca          0.00075227    -0.00003564    -0.00052026
     51      1      Ca         -0.00033164     0.00004526     0.00024329
     52      2      Si         -0.00099995    -0.00048552    -0.00070312
     53      2      Si         -0.00024779    -0.00010210    -0.00010597
     54      2      Si          0.00076604     0.00018112    -0.00069646
     55      3      O          -0.00044986    -0.00048937    -0.00115719
     56      3      O           0.00032013     0.00021748    -0.00065273
     57      3      O           0.00093021    -0.00030365     0.00022846
     58      3      O          -0.00089848    -0.00024603     0.00091694
     59      3      O          -0.00002601    -0.00063172    -0.00131429
     60      3      O          -0.00041337     0.00079297    -0.00081923
     61      3      O          -0.00004358    -0.00031248     0.00011660
     62      3      O          -0.00102335     0.00015751     0.00151037
     63      3      O           0.00086660     0.00040758    -0.00032641
     64      3      O          -0.00153475    -0.00071846    -0.00098373
     65      3      O          -0.00048005     0.00061011    -0.00025131
     66      3      O           0.00206087     0.00103027    -0.00039149
     67      3      O          -0.00024838    -0.00000202    -0.00031322
     68      3      O           0.00027233    -0.00093749    -0.00031002
     69      3      O           0.00053113     0.00023412     0.00063582
     70      3      O          -0.00014676    -0.00039603     0.00048605
     71      1      Ca         -0.00126947     0.00085625     0.00048314
     72      1      Ca         -0.00019664     0.00021866    -0.00049134
     73      1      Ca         -0.00039905    -0.00024417     0.00005938
     74      1      Ca         -0.00004783    -0.00027523    -0.00035714
     75      2      Si         -0.00022740    -0.00041949    -0.00006499
     76      2      Si         -0.00011136    -0.00067991    -0.00122244
     77      2      Si          0.00017200     0.00006169     0.00013438
     78      3      O           0.00085517     0.00049913     0.00049840
     79      3      O          -0.00082787    -0.00010133     0.00012792
     80      3      O          -0.00061449    -0.00073975     0.00077495
     81      3      O           0.00161472     0.00044166     0.00005995
     82      3      O          -0.00144596     0.00075106     0.00101105
     83      3      O          -0.00013305    -0.00083043     0.00064434
     84      3      O          -0.00062017     0.00134388     0.00012747
     85      3      O           0.00056975    -0.00010919    -0.00033905
     86      3      O           0.00057876    -0.00035928    -0.00076615
     87      3      O           0.00090417     0.00009332     0.00004036
     88      3      O          -0.00026864     0.00005453    -0.00021929
     89      3      O           0.00073409    -0.00085777     0.00033135
     90      3      O           0.00062084    -0.00009445     0.00007927
     91      3      O           0.00047800     0.00041824     0.00093522
     92      3      O           0.00252357     0.00070009    -0.00136067
     93      3      O          -0.00033869    -0.00072936     0.00052935
     94      1      Ca          0.00074061    -0.00014601     0.00003420
     95      4      H          -0.00074980     0.00019278    -0.00029537
     96      4      H          -0.00030333    -0.00013286     0.00023948
     97      4      H           0.00014945     0.00025400    -0.00002581
     98      4      H           0.00021976    -0.00041387     0.00036368
     99      4      H           0.00083111     0.00074204    -0.00080361
    100      4      H           0.00196648    -0.00010524    -0.00163599
    101      4      H           0.00055336     0.00040982    -0.00011411
    102      4      H           0.00010612     0.00005914    -0.00019866
    103      4      H           0.00053574     0.00050089    -0.00110173
    104      4      H           0.00107886     0.00029486    -0.00022286
    105      4      H           0.00015179    -0.00016623    -0.00017276
    106      4      H           0.00038514    -0.00010716    -0.00014254
    107      4      H          -0.00058115     0.00006940    -0.00027889
[...]
 flops   421 x    32 x    62          96890624000       0.0%    100.0%      0.0%     
 flops    96 x    32 x    50          99348480000       0.0%    100.0%      0.0%     
 flops     5 x    32 x     5         101043712000       0.0%    100.0%      0.0%     
 flops     5 x    13 x    32         105515238400       0.0%    100.0%      0.0%     
 flops    13 x     5 x    32         105515238400       0.0%    100.0%      0.0%     
 flops   104 x    32 x    50         107627520000       0.0%    100.0%      0.0%     
 flops   390 x    32 x    50         108576000000       0.0%    100.0%      0.0%     
 flops    64 x    32 x    62         109504102400       0.0%    100.0%      0.0%     
 flops    14 x    32 x     5         115740979200       0.0%    100.0%      0.0%     
 flops     5 x    32 x    14         115740979200       0.0%    100.0%      0.0%     
 flops   313 x    32 x    57         115895136000       0.0%    100.0%      0.0%     
 flops   421 x    32 x    50         117206400000       0.0%    100.0%      0.0%     
 flops    14 x    13 x    32         120862909440       0.0%    100.0%      0.0%     
 flops    13 x    14 x    32         120862909440       0.0%    100.0%      0.0%     
 flops   336 x    32 x    57         124411392000       0.0%    100.0%      0.0%     
 flops    96 x    32 x    57         132133478400       0.0%    100.0%      0.0%     
 flops    64 x    32 x    50         132464640000       0.0%    100.0%      0.0%     
 flops    14 x    32 x    14         132576030720       0.0%    100.0%      0.0%     
 flops   104 x    32 x    57         143144601600       0.0%    100.0%      0.0%     
 flops   390 x    32 x    57         144406080000       0.0%    100.0%      0.0%     
 flops   421 x    32 x    57         155884512000       0.0%    100.0%      0.0%     
 flops    96 x    32 x    32         168276787200       0.0%    100.0%      0.0%     
 flops    64 x    32 x    57         176177971200       0.0%    100.0%      0.0%     
 flops   104 x    32 x    32         182299852800       0.0%    100.0%      0.0%     
 flops    64 x    32 x    32         224369049600       0.0%    100.0%      0.0%     
 flops   313 x    32 x    32         427947622400       0.0%    100.0%      0.0%     
 flops     5 x    32 x    13         453778124800       0.0%    100.0%      0.0%     
 flops    13 x    32 x     5         453778124800       0.0%    100.0%      0.0%     
 flops   336 x    32 x    32         459394252800       0.0%    100.0%      0.0%     
 flops    13 x    13 x    32         480094334720       0.0%    100.0%      0.0%     
 flops    14 x    32 x    13         519782215680       0.0%    100.0%      0.0%     
 flops    13 x    32 x    14         519782215680       0.0%    100.0%      0.0%     
 flops   390 x    32 x    32         533225472000       0.0%    100.0%      0.0%     
 flops   421 x    32 x    32         575610060800       0.0%    100.0%      0.0%     
 flops    13 x    32 x    13        2037876305920       0.0%    100.0%      0.0%     
 flops inhomo. stacks               1729951704000     100.0%      0.0%      0.0%
 flops total                        12.477820E+12      13.9%     86.1%      0.0%
 flops max/rank                    586.040271E+09      15.0%     85.0%      0.0%
 matmuls inhomo. stacks                   2708640     100.0%      0.0%      0.0%
 matmuls total                          858705001       0.3%     99.7%      0.0%
 number of processed stacks              56083126       4.8%     95.2%      0.0%
 average stack size                                     1.0      16.0       0.0
 marketing flops                    13.157286E+12
 -------------------------------------------------------------------------------
 # multiplications                          27018
 max memory usage/rank             532.471808E+06
 # max total images/rank                       13
 # max 3D layers                                1
 # MPI messages exchanged                53387568
 MPI messages size (bytes):
  total size                         3.558136E+12
  min size                           0.000000E+00
  max size                         381.680000E+03
  average size                      66.647281E+03
 MPI breakdown and total messages size (bytes):
             size <=      128            25828897                        0
       128 < size <=     8192             2146431              14204776704
      8192 < size <=    32768             3448890              47918937600
     32768 < size <=   131072            11700250             715233568000
    131072 < size <=  4194304            10263100            2782035840000
   4194304 < size <= 16777216                   0                        0
  16777216 < size                               0                        0
 -------------------------------------------------------------------------------

 *** WARNING in dbcsr_mm.F:301 :: Using a non-square number of MPI ranks ***
 *** might lead to poor performance. Used ranks: 52 Suggested: 49 100    ***

 -------------------------------------------------------------------------------
 -                                                                             -
 -                      DBCSR MESSAGE PASSING PERFORMANCE                      -
 -                                                                             -
 -------------------------------------------------------------------------------
 ROUTINE             CALLS      AVE VOLUME [Bytes]
 MP_Bcast              113                     12.
 MP_Allreduce       145019                      8.
 MP_Alltoall         91973                  23305.
 MP_ISend          2426238                  30902.
 MP_IRecv          2348700                  30637.
 -------------------------------------------------------------------------------

 -------------------------------------------------------------------------------
 -                                                                             -
 -                                DBM STATISTICS                               -
 -                                                                             -
 -------------------------------------------------------------------------------
    M  x    N  x    K                                          COUNT     PERCENT
 -------------------------------------------------------------------------------

 -------------------------------------------------------------------------------
 -                                                                             -
 -                                GRID STATISTICS                              -
 -                                                                             -
 -------------------------------------------------------------------------------
 LP    KERNEL             BACKEND                              COUNT     PERCENT
 3     collocate general  CPU                              150378664      22.37%
 4     collocate general  CPU                              144233623      21.46%
 3     integrate general  CPU                              143093750      21.29%
 4     integrate general  CPU                              136737248      20.34%
 2     collocate general  CPU                               41055739       6.11%
 2     integrate general  CPU                               38921933       5.79%
 6     integrate general  CPU                                7711696       1.15%
 7     integrate general  CPU                                7396408       1.10%
 5     integrate general  CPU                                2105352       0.31%
 0     collocate general  CPU                                 538200       0.08%
 -------------------------------------------------------------------------------

 MEMORY| Estimated peak process memory [MiB]                                 508

 -------------------------------------------------------------------------------
 -                                                                             -
 -                         MESSAGE PASSING PERFORMANCE                         -
 -                                                                             -
 -------------------------------------------------------------------------------

 ROUTINE             CALLS      AVE VOLUME [Bytes]
 MP_Group                4
 MP_Bcast            10156                  76185.
 MP_Allreduce        34455                    354.
 MP_Sync               213
 MP_Alltoall         34225                2737457.
 MP_SendRecv        235875                  64936.
 MP_ISendRecv       220626                  68832.
 MP_Wait            426938
 MP_comm_split         135
 MP_ISend           188108                 228839.
 MP_IRecv           188108                 228839.
 -------------------------------------------------------------------------------


 -------------------------------------------------------------------------------
 -                                                                             -
 -                           R E F E R E N C E S                               -
 -                                                                             -
 -------------------------------------------------------------------------------
 
 CP2K version 2024.3, the CP2K developers group (2024).
 CP2K is freely available from https://www.cp2k.org/ .
 
 T. D. Kuehne, M. Iannuzzi, M. Del Ben, V. V. Rybkin, P. Seewald, F. Stein, T. 
 Laino, R. Z. Khaliullin, O. Schuett, F. Schiffmann, D. Golze, J. Wilhelm, S. 
 Chulkov, M. H. Bani-Hashemian, V. Weber, U. Borstnik, M. Taillefumier, A. S. 
 Jakobovits, A. Lazzaro, H. Pabst, T. Mueller, R. Schade, M. Guidon, S. 
 Andermatt, N. Holmberg, G. K. Schenter, A. Hehn, A. Bussy, F. Belleflamme, G. 
 Tabacchi, A. Gloess, M. Lass, I. Bethune, C. J. Mundy, C. Plessl, M. Watkins, 
 J. VandeVondele, M. Krack, J. Hutter.
 J. Chem. Phys. 152, 194103 (2020).
 CP2K: An electronic structure and molecular dynamics software package - 
 Quickstep: Efficient and accurate electronic structure calculations.
 https://doi.org/10.1063/5.0007045

 L. Goerigk, A. Hansen, C. Bauer, S. Ehrlich, A. Najibi, S. Grimme.
 Phys. Chem. Chem. Phys. 19, 32184-32215 (2017).
 A look at the density functional theory zoo with the advanced GMTKN55 database 
 for general main group thermochemistry, kinetics and noncovalent interactions.
 https://doi.org/10.1039/C7CP04913G

 O. Schuett, P. Messmer, J. Hutter, J. VandeVondele.
 Electronic Structure Calculations on Graphics Processing Units, 173-190 (2016).
 GPU-Accelerated Sparse Matrix-Matrix Multiplication for Linear Scaling Density 
 Functional Theory.
 https://doi.org/10.1002/9781118670712.ch8

 A. Heinecke, G. Henry, M. Hutchinson, H. Pabst.
 Proceedings of Intl. Supercomputing Conference, 981-991 (2016).
 LIBXSMM: Accelerating Small Matrix Multiplications by Runtime Code Generation.
 https://doi.org/10.1109/SC.2016.83

 J. Hutter, M. Iannuzzi, F. Schiffmann, J. VandeVondele.
 WIREs Comput Mol Sci. 4, 15-25 (2014).
 CP2K: atomistic simulations of condensed matter systems.
 https://doi.org/10.1002/wcms.1159

 U. Borstnik, J. VandeVondele, V. Weber, J. Hutter.
 Parallel Comput. 40, 47-58 (2014).
 Sparse matrix multiplication: The distributed block-compressed sparse row 
 library.
 https://doi.org/10.1016/j.parco.2014.03.012

 A. Marek, V. Blum, R. Johanni, V. Havu, B. Lang, T. Auckenthaler, A. Heinecke, 
 H. Bungartz, H. Lederer.
 J. Phys. Condens. Matter 26, 213201 (2014).
 The ELPA library: scalable parallel eigenvalue solutions for electronic 
 structure theory and computational science.
 https://doi.org/10.1088/0953-8984/26/21/213201

 S. Grimme, S. Ehrlich, L. Goerigk.
 J. Comput. Chem. 32, 1456 (2011).
 Effect of the damping function in dispersion corrected density functional 
 theory.
 https://doi.org/10.1002/jcc.21759

 S. Grimme, J. Antony, S. Ehrlich, H. Krieg.
 J. Chem. Phys. 132, 154104 (2010).
 A consistent and accurate ab initio parametrization of density functional 
 dispersion correction (DFT-D) for the 94 elements H-Pu.
 https://doi.org/10.1063/1.3382344

 J. P. Perdew, A. Ruzsinszky, G. I. Csonka, O. A. Vydrov, G. E. Scuseria, L. A. 
 Constantin, X. Zhou, K. Burke.
 Phys. Rev. Lett. 100, 136406-136409 (2008).
 Restoring the Density-Gradient Expansion for Exchange in Solids and Surfaces.
 https://doi.org/10.1103/PhysRevLett.100.136406

 J. VandeVondele, J. Hutter.
 J. Chem. Phys. 127, 114105 (2007).
 Gaussian basis sets for accurate calculations on molecular systems in gas and 
 condensed phases.
 https://doi.org/10.1063/1.2770708

 T. D. Kühne, M. Krack, F. R. Mohamed, M. Parrinello.
 Phys. Rev. Lett. 98, 066401 (2007).
 Efficient and accurate Car-Parrinello-like approach to Born-Oppenheimer 
 molecular dynamics.
 https://doi.org/10.1103/PhysRevLett.98.066401

 J. VandeVondele, M. Krack, F. Mohamed, M. Parrinello, T. Chassaing, J. Hutter.
 Comput. Phys. Commun. 167, 103-128 (2005).
 QUICKSTEP: Fast and accurate density functional calculations using a mixed 
 Gaussian and plane waves approach.
 https://doi.org/10.1016/j.cpc.2004.12.014

 M. Krack.
 Theor. Chem. Acc. 114, 145-152 (2005).
 Pseudopotentials for H to Kr optimized for gradient-corrected 
 exchange-correlation functionals.
 https://doi.org/10.1007/s00214-005-0655-y

 M. Frigo, S. G. Johnson.
 Proc. IEEE 93, 216-231 (2005).
 The design and implementation of FFTW3.
 https://doi.org/10.1109/JPROC.2004.840301

 J. Kolafa.
 J. Comput. Chem. 25, 335-342 (2004).
 Time-reversible always stable predictor-corrector method for molecular dynamics 
 of polarizable molecules.
 https://doi.org/10.1002/jcc.10385

 J. VandeVondele, J. Hutter.
 J. Chem. Phys. 118, 4365-4369 (2003).
 An efficient orbital transformation method for electronic structure 
 calculations.
 https://doi.org/10.1063/1.1543154

 C. Hartwigsen, S. Goedecker, J. Hutter.
 Phys. Rev. B 58, 3641-3662 (1998).
 Relativistic separable dual-space Gaussian pseudopotentials from H to Rn.
 https://doi.org/10.1103/PhysRevB.58.3641

 G. Lippert, J. Hutter, M. Parrinello.
 Mol. Phys. 92, 477-487 (1997).
 A hybrid Gaussian and plane wave density functional scheme.
 https://doi.org/10.1080/002689797170220

 S. Goedecker, M. Teter, J. Hutter.
 Phys. Rev. B 54, 1703-1710 (1996).
 Separable dual-space Gaussian pseudopotentials.
 https://doi.org/10.1103/PhysRevB.54.1703

 J. P. Perdew, K. Burke, M. Ernzerhof.
 Phys. Rev. Lett. 77, 3865-3868 (1996).
 Generalized gradient approximation made simple.
 https://doi.org/10.1103/PhysRevLett.77.3865


 -------------------------------------------------------------------------------
 -                                                                             -
 -                                T I M I N G                                  -
 -                                                                             -
 -------------------------------------------------------------------------------
 SUBROUTINE                       CALLS  ASD         SELF TIME        TOTAL TIME
                                MAXIMUM       AVERAGE  MAXIMUM  AVERAGE  MAXIMUM
 CP2K                                 1  1.0    0.013    0.036 2630.357 2630.362
 cp_geo_opt                           1  2.0    0.000    0.000 2630.006 2630.011
 geoopt_bfgs                          1  3.0    0.022    0.030 2630.006 2630.011
 cp_eval_at                          75  4.0    0.013    0.049 2627.638 2627.669
 qs_forces                           74  5.0    0.018    0.022 2609.419 2609.424
 qs_energies                         75  6.0    0.007    0.009 2432.234 2432.268
 scf_env_do_scf                      75  7.0    0.005    0.009 2338.026 2338.032
 scf_env_do_scf_inner_loop         1368  8.0    0.035    0.173 2257.650 2257.985
 rebuild_ks_matrix                 1442  9.8    0.007    0.007 1384.545 1385.684
 qs_ks_build_kohn_sham_matrix      1442 10.8    0.269    0.297 1384.539 1385.678
 qs_ks_update_qs_env               1450  9.0    0.012    0.016 1241.616 1242.327
 sum_up_and_integrate              1442 11.8    0.037    0.065 1050.384 1050.798
 integrate_v_rspace                1442 12.8    0.067    0.110 1049.298 1050.058
 qs_rho_update_rho_low             1443  9.0    0.008    0.010 1030.008 1030.784
 calculate_rho_elec                1443 10.0    0.747    0.917 1030.000 1030.776
 grid_collocate_task_list          1443 11.0  853.343  881.340  853.343  881.340
 grid_integrate_task_list          1442 13.8  846.349  873.165  846.349  873.165
 fft_wrap_pw1pw2                  24594 14.2    1.051    1.178  297.288  311.638
 fft_wrap_pw1pw2_250              15939 15.6   15.268   15.884  279.390  292.121
 qs_vxc_create                     1442 11.8    0.076    0.098  248.538  253.569
 xc_vxc_pw_create                  1442 12.8    6.633    7.957  248.462  253.497
 fft3d_ps                         24594 16.2  120.470  131.688  227.521  243.892
 density_rs2pw                     1443 11.0    0.141    0.176  172.365  214.002
 xc_pw_derive                      8652 14.8    0.236    0.291  179.059  197.159
 potential_pw2rs                   1442 13.8    0.183    0.219  159.763  160.278
 transfer_rs2pw                    5847 12.0    0.105    0.145  112.705  152.236
 qs_ks_update_qs_env_forces          74  6.0    0.000    0.001  143.629  144.198
 mp_waitany                      188108 15.3   98.992  139.793   98.992  139.793
 transfer_rs2pw_250                1518 12.9   19.502   23.544   93.463  132.894
 transfer_pw2rs                    5842 14.8    0.105    0.130  131.155  131.300
 xc_pw_divergence                  1442 13.8    0.121    0.150  119.637  131.188
 dbcsr_multiply_generic           27018 14.0    1.465    1.663  127.517  129.303
 mp_alltoall_z22v                 24594 18.2   71.272  122.513   71.272  122.513
 xc_rho_set_and_dset_create        1442 13.8    3.116    3.854  118.018  120.705
 qs_scf_new_mos                    1368  9.0    0.008    0.011  113.551  114.419
 qs_scf_loop_do_ot                 1368 10.0    0.009    0.012  113.544  114.412
 ot_scf_mini                       1368 11.0    0.042    0.045  106.141  107.007
 transfer_pw2rs_250                1516 15.6   52.887   54.293  105.149  106.605
 mp_alltoall_d11v                 20140 15.1   44.383   84.864   44.383   84.864
 rs_gather_matrices                1442 13.8    0.281    0.429   42.999   83.689
 yz_to_x                           8729 17.4   12.299   14.511   49.540   80.637
 init_scf_loop                       82  8.0    0.002    0.003   79.947   79.953
 multiply_cannon                  27018 15.0    3.098    3.390   67.947   72.340
 ot_mini                           1368 12.0    0.010    0.011   70.289   71.131
 init_scf_run                        75  7.0    0.002    0.004   61.328   61.361
 scf_env_initial_rho_setup           75  8.0    0.001    0.002   61.326   61.360
 wfi_extrapolate                     75  9.0    0.008    0.010   60.473   60.480
 x_to_yz                          10095 17.4   18.259   20.965   51.104   60.290
 mp_waitall_1                   3697134 18.0   40.384   59.585   40.384   59.585
 multiply_cannon_loop             27018 16.0    3.873    4.908   55.279   59.146
 qs_ot_get_derivative              1368 13.0    0.013    0.015   55.412   56.285
 -------------------------------------------------------------------------------

 The number of warnings for this run is : 1
 
 -------------------------------------------------------------------------------
  **** **** ******  **  PROGRAM ENDED AT                 2025-01-16 04:55:03.358
 ***** ** ***  *** **   PROGRAM RAN ON                               ubuntu-GPU2
 **    ****   ******    PROGRAM RAN BY                                       zkm
 ***** **    ** ** **   PROGRAM PROCESS ID                               3478912
  **** **  *******  **  PROGRAM STOPPED IN /home/zkm/CP2K/Generate_dataset/Jenni
                                           te/Elastic/elastic_cp2k/example/epsil
                                           onxx/pos
