 DBCSR| CPU Multiplication driver                                           XSMM (U)
 DBCSR| Multrec recursion limit                                              512 (U)
 DBCSR| Multiplication stack size                                           1000 (D)
 DBCSR| Maximum elements for images                                    UNLIMITED (U)
 DBCSR| Multiplicative factor virtual images                                   1 (U)
 DBCSR| Use multiplication densification                                       T (D)
 DBCSR| Multiplication size stacks                                             3 (U)
 DBCSR| Use memory pool for CPU allocation                                     F (U)
 DBCSR| Number of 3D layers                                               SINGLE (U)
 DBCSR| Use MPI memory allocation                                              F (U)
 DBCSR| Use RMA algorithm                                                      F (U)
 DBCSR| Use Communication thread                                               T (U)
 DBCSR| Communication thread load                                             83 (D)
 DBCSR| MPI: My process id                                                     0
 DBCSR| MPI: Number of processes                                              52
 DBCSR| OMP: Current number of threads                                         2
 DBCSR| OMP: Max number of threads                                             2
 DBCSR| Split modifier for TAS multiplication algorithm                  1.0E+00 (U)


  **** **** ******  **  PROGRAM STARTED AT               2025-01-16 04:55:03.932
 ***** ** ***  *** **   PROGRAM STARTED ON                           ubuntu-GPU2
 **    ****   ******    PROGRAM STARTED BY                                   zkm
 ***** **    ** ** **   PROGRAM PROCESS ID                               3479325
  **** **  *******  **  PROGRAM STARTED IN /home/zkm/CP2K/Generate_dataset/Jenni
                                           te/Elastic/elastic_cp2k/example/epsil
                                           onxx/neg

 CP2K| version string:                                       CP2K version 2024.3
 CP2K| source code revision number:                                  git:6712648
 CP2K| cp2kflags: omp libint fftw3 libxc libgrpp pexsi elpa parallel scalapack m
 CP2K|            pi_f08 cosma quip xsmm plumed2 spglib mkl sirius libvori libbq
 CP2K|            qb libvdwxc hdf5
 CP2K| is freely available from                            https://www.cp2k.org/
 CP2K| Program compiled at            2024年 10月 05日 星期六 13:00:57 CST
 CP2K| Program compiled on                                           ubuntu-GPU2
 CP2K| Program compiled for                                                local
 CP2K| Data directory path                       /home/zkm/CP2K/cp2k-2024.3/data
 CP2K| Input file name                                                geoopt.inp

 GLOBAL| Force Environment number                                              1
 GLOBAL| Basis set file name                                        BASIS_MOLOPT
 GLOBAL| Potential file name                                           POTENTIAL
 GLOBAL| MM Potential file name                                     MM_POTENTIAL
 GLOBAL| Coordinate file name                                          coord.xyz
 GLOBAL| Method name                                                        CP2K
 GLOBAL| Project name                                                     geoopt
 GLOBAL| Run type                                                        GEO_OPT
 GLOBAL| FFT library                                                       FFTW3
 GLOBAL| Diagonalization library                                            ELPA
 GLOBAL| DGEMM library                                                      BLAS
 GLOBAL| Minimum number of eigenvectors for ELPA usage                        16
 GLOBAL| Orthonormality check for eigenvectors                          DISABLED
 GLOBAL| Matrix multiplication library                                     COSMA
 GLOBAL| All-to-all communication in single precision                          F
 GLOBAL| FFTs using library dependent lengths                                  F
 GLOBAL| Grid backend                                                       AUTO
 GLOBAL| Global print level                                                  LOW
 GLOBAL| MPI I/O enabled                                                       T
 GLOBAL| Total number of message passing processes                            52
 GLOBAL| Number of threads for this process                                    2
 GLOBAL| This output is from process                                           0
 GLOBAL| Stack size for threads created by OpenMP (OMP_STACKSIZE)        default
 GLOBAL| CPU model name            Intel(R) Xeon(R) Platinum 8179M CPU @ 2.40GHz
 GLOBAL| CPUID                                                              1003

 MEMORY| system memory details [Kb]
 MEMORY|                        rank 0           min           max       average
 MEMORY| MemTotal            527974664     527974664     527974664     527974664
 MEMORY| MemFree             104824388     104824388     104824388     104824388
 MEMORY| Buffers               6978712       6978712       6978712       6978712
 MEMORY| Cached              241483716     241483716     241483716     241483716
 MEMORY| Slab                 39934324      39934324      39934324      39934324
 MEMORY| SReclaimable         37108944      37108944      37108944      37108944
 MEMORY| MemLikelyFree       390395760     390395760     390395760     390395760


 GENERATE|  Preliminary Number of Bonds generated:                             0
 GENERATE|  Achieved consistency in connectivity generation.

 *******************************************************************************
 *******************************************************************************
 **                                                                           **
 **     #####                         ##              ##                      **
 **    ##   ##            ##          ##              ##                      **
 **   ##     ##                       ##            ######                    **
 **   ##     ##  ##   ##  ##   #####  ##  ##   ####   ##    #####    #####    **
 **   ##     ##  ##   ##  ##  ##      ## ##   ##      ##   ##   ##  ##   ##   **
 **   ##  ## ##  ##   ##  ##  ##      ####     ###    ##   ######   ######    **
 **    ##  ###   ##   ##  ##  ##      ## ##      ##   ##   ##       ##        **
 **     #######   #####   ##   #####  ##  ##  ####    ##    #####   ##        **
 **           ##                                                    ##        **
 **                                                                           **
 **                                                ... make the atoms dance   **
 **                                                                           **
 **            Copyright (C) by CP2K developers group (2000-2024)             **
 **                      J. Chem. Phys. 152, 194103 (2020)                    **
 **                                                                           **
 *******************************************************************************


 TOTAL NUMBERS AND MAXIMUM NUMBERS

  Total number of            - Atomic kinds:                                   4
                             - Atoms:                                        138
                             - Shell sets:                                   138
                             - Shells:                                       620
                             - Primitive Cartesian functions:                696
                             - Cartesian basis functions:                   1554
                             - Spherical basis functions:                   1460

  Maximum angular momentum of- Orbital basis functions:                        2
                             - Local part of the GTH pseudopotential:          2
                             - Non-local part of the GTH pseudopotential:      3


 SCF PARAMETERS         Density guess:                                    ATOMIC
                        --------------------------------------------------------
                        max_scf:                                              25
                        max_scf_history:                                       0
                        max_diis:                                              4
                        --------------------------------------------------------
                        eps_scf:                                        1.00E-07
                        eps_scf_history:                                0.00E+00
                        eps_diis:                                       1.00E-01
                        eps_eigval:                                     1.00E-05
                        --------------------------------------------------------
                        level_shift [a.u.]:                             0.000000
                        --------------------------------------------------------
                        Outer loop SCF in use 
                        No variables optimised in outer loop
                        eps_scf                                         1.00E-07
                        max_scf                                               20
                        No outer loop optimization
                        step_size                                       5.00E-01

 BFGS| Use rational function optimization for step estimation:                NO
 BFGS| Use model Hessian for initial guess:                                  YES
 BFGS| Restart Hessian:                                                       NO
 BFGS| Trust radius:                                                       0.378

 *******************************************************************************
 ***                     STARTING GEOMETRY OPTIMIZATION                      ***
 ***                                   BFGS                                  ***
 *******************************************************************************

 Number of electrons:                                                        656
 Number of occupied orbitals:                                                328
 Number of molecular orbitals:                                               328

 Number of orbital functions:                                               1460
 Number of independent orbital functions:                                   1460

 Extrapolation method: initial_guess


 SCF WAVEFUNCTION OPTIMIZATION

  ----------------------------------- OT ---------------------------------------
  Minimizer      : DIIS                : direct inversion
                                         in the iterative subspace
                                         using   7 DIIS vectors
                                         safer DIIS on
  Preconditioner : FULL_KINETIC        : inversion of T + eS
  Precond_solver : DEFAULT
  stepsize       :    0.15000000                  energy_gap     :    0.20000000
  eps_taylor     :   0.10000E-15                  max_taylor     :             4
  ----------------------------------- OT ---------------------------------------

  Step     Update method      Time    Convergence         Total energy    Change
  ------------------------------------------------------------------------------
     1 OT DIIS     0.15E+00    1.0     0.01900623     -1710.3019457835 -1.71E+03
     2 OT DIIS     0.15E+00    2.1     0.01127509     -1728.7981079316 -1.85E+01
     3 OT DIIS     0.15E+00    1.7     0.00838162     -1737.8883400688 -9.09E+00
     4 OT DIIS     0.15E+00    1.9     0.00558682     -1746.5404019791 -8.65E+00
     5 OT DIIS     0.15E+00    1.7     0.00415004     -1751.0159344853 -4.48E+00
     6 OT DIIS     0.15E+00    1.8     0.00320847     -1753.9021534380 -2.89E+00
     7 OT DIIS     0.15E+00    1.7     0.00246854     -1756.0503532487 -2.15E+00
     8 OT DIIS     0.15E+00    1.9     0.00194634     -1757.4832833626 -1.43E+00
     9 OT DIIS     0.15E+00    1.7     0.00155623     -1758.4416309904 -9.58E-01
    10 OT DIIS     0.15E+00    1.8     0.00132047     -1759.0565375302 -6.15E-01
    11 OT DIIS     0.15E+00    1.7     0.00111693     -1759.4846850713 -4.28E-01
    12 OT DIIS     0.15E+00    1.9     0.00098957     -1759.8258164396 -3.41E-01
    13 OT DIIS     0.15E+00    1.7     0.00084487     -1760.0817020648 -2.56E-01
    14 OT DIIS     0.15E+00    1.7     0.00074701     -1760.2904353407 -2.09E-01
    15 OT DIIS     0.15E+00    1.7     0.00066632     -1760.4552607291 -1.65E-01
    16 OT DIIS     0.15E+00    1.8     0.00061137     -1760.5850720072 -1.30E-01
    17 OT DIIS     0.15E+00    1.7     0.00057838     -1760.6854609307 -1.00E-01
    18 OT DIIS     0.15E+00    1.7     0.00054397     -1760.7669598488 -8.15E-02
    19 OT DIIS     0.15E+00    1.7     0.00052190     -1760.8594691629 -9.25E-02
    20 OT DIIS     0.15E+00    1.8     0.00047692     -1760.9192794563 -5.98E-02
    21 OT DIIS     0.15E+00    1.7     0.00043971     -1760.9895922355 -7.03E-02
    22 OT DIIS     0.15E+00    1.7     0.00037214     -1761.0599501920 -7.04E-02
    23 OT DIIS     0.15E+00    1.7     0.00030317     -1761.1120144752 -5.21E-02
    24 OT DIIS     0.15E+00    1.9     0.00024410     -1761.1615667567 -4.96E-02
    25 OT DIIS     0.15E+00    1.7     0.00018798     -1761.1785908119 -1.70E-02

  Leaving inner SCF loop after reaching    25 steps.


  Electronic density on regular grids:       -655.9999999993        0.0000000007
  Core density on regular grids:              655.9999999997       -0.0000000003
  Total charge density on r-space grids:        0.0000000003
  Total charge density g-space grids:           0.0000000003

  Overlap energy of the core charge distribution:               0.00000060229522
  Self energy of the core charge distribution:              -4144.80997841715816
  Core Hamiltonian energy:                                   1117.89999366071470
  Hartree energy:                                            1613.31307164976943
  Exchange-correlation energy:                               -347.08139449512174
  Dispersion energy:                                           -0.50028381241246

  Total energy:                                             -1761.17859081191250

  outer SCF iter =    1 RMS gradient =   0.19E-03 energy =      -1761.1785908119

  ----------------------------------- OT ---------------------------------------
  Minimizer      : DIIS                : direct inversion
                                         in the iterative subspace
                                         using   7 DIIS vectors
                                         safer DIIS on
  Preconditioner : FULL_KINETIC        : inversion of T + eS
  Precond_solver : DEFAULT
  stepsize       :    0.15000000                  energy_gap     :    0.20000000
  eps_taylor     :   0.10000E-15                  max_taylor     :             4
  ----------------------------------- OT ---------------------------------------

  Step     Update method      Time    Convergence         Total energy    Change
  ------------------------------------------------------------------------------
     1 OT DIIS     0.15E+00    3.4     0.00042470     -1761.1939987858 -1.54E-02
     2 OT DIIS     0.15E+00    1.7     0.00032046     -1761.2051005341 -1.11E-02
     3 OT DIIS     0.15E+00    1.9     0.00022460     -1761.2172533040 -1.22E-02
     4 OT DIIS     0.15E+00    1.7     0.00016410     -1761.2248826398 -7.63E-03
     5 OT DIIS     0.15E+00    1.7     0.00011025     -1761.2300892158 -5.21E-03
     6 OT DIIS     0.15E+00    1.7     0.00007139     -1761.2327917210 -2.70E-03
     7 OT DIIS     0.15E+00    2.0     0.00005028     -1761.2337728067 -9.81E-04
     8 OT DIIS     0.15E+00    1.7     0.00003223     -1761.2343295043 -5.57E-04
     9 OT DIIS     0.15E+00    1.7     0.00002192     -1761.2345453301 -2.16E-04
    10 OT DIIS     0.15E+00    1.7     0.00001573     -1761.2346362274 -9.09E-05
    11 OT DIIS     0.15E+00    2.0     0.00001083     -1761.2346876373 -5.14E-05
    12 OT DIIS     0.15E+00    1.7     0.00000758     -1761.2347112367 -2.36E-05
    13 OT DIIS     0.15E+00    1.7     0.00000545     -1761.2347216961 -1.05E-05
    14 OT DIIS     0.15E+00    1.7     0.00000396     -1761.2347266483 -4.95E-06
    15 OT DIIS     0.15E+00    1.9     0.00000302     -1761.2347289509 -2.30E-06
    16 OT DIIS     0.15E+00    1.7     0.00000231     -1761.2347302763 -1.33E-06
    17 OT DIIS     0.15E+00    1.7     0.00000180     -1761.2347310211 -7.45E-07
    18 OT DIIS     0.15E+00    1.7     0.00000141     -1761.2347314861 -4.65E-07
    19 OT DIIS     0.15E+00    1.9     0.00000108     -1761.2347317914 -3.05E-07
    20 OT DIIS     0.15E+00    1.8     0.00000082     -1761.2347319755 -1.84E-07
    21 OT DIIS     0.15E+00    1.7     0.00000065     -1761.2347320774 -1.02E-07
    22 OT DIIS     0.15E+00    1.7     0.00000050     -1761.2347321412 -6.38E-08
    23 OT DIIS     0.15E+00    1.9     0.00000039     -1761.2347321813 -4.01E-08
    24 OT DIIS     0.15E+00    1.8     0.00000031     -1761.2347322057 -2.44E-08
    25 OT DIIS     0.15E+00    1.7     0.00000024     -1761.2347322206 -1.49E-08

  Leaving inner SCF loop after reaching    25 steps.


  Electronic density on regular grids:       -655.9999999993        0.0000000007
  Core density on regular grids:              655.9999999997       -0.0000000003
  Total charge density on r-space grids:        0.0000000003
  Total charge density g-space grids:           0.0000000003

  Overlap energy of the core charge distribution:               0.00000060229522
  Self energy of the core charge distribution:              -4144.80997841715816
  Core Hamiltonian energy:                                   1117.94800691602222
  Hartree energy:                                            1613.23039866535873
  Exchange-correlation energy:                               -347.10287617465781
  Dispersion energy:                                           -0.50028381241246

  Total energy:                                             -1761.23473222055190

  outer SCF iter =    2 RMS gradient =   0.24E-06 energy =      -1761.2347322206

  ----------------------------------- OT ---------------------------------------
  Minimizer      : DIIS                : direct inversion
                                         in the iterative subspace
                                         using   7 DIIS vectors
                                         safer DIIS on
  Preconditioner : FULL_KINETIC        : inversion of T + eS
  Precond_solver : DEFAULT
  stepsize       :    0.15000000                  energy_gap     :    0.20000000
  eps_taylor     :   0.10000E-15                  max_taylor     :             4
  ----------------------------------- OT ---------------------------------------

  Step     Update method      Time    Convergence         Total energy    Change
  ------------------------------------------------------------------------------
     1 OT DIIS     0.15E+00    3.4     0.00000019     -1761.2347322296 -9.08E-09
     2 OT DIIS     0.15E+00    1.8     0.00000017     -1761.2347322321 -2.49E-09
     3 OT DIIS     0.15E+00    1.7     0.00000014     -1761.2347322361 -4.00E-09
     4 OT DIIS     0.15E+00    1.7     0.00000008     -1761.2347322428 -6.67E-09

  *** SCF run converged in     4 steps ***


  Electronic density on regular grids:       -655.9999999993        0.0000000007
  Core density on regular grids:              655.9999999997       -0.0000000003
  Total charge density on r-space grids:        0.0000000003
  Total charge density g-space grids:           0.0000000003

  Overlap energy of the core charge distribution:               0.00000060229522
  Self energy of the core charge distribution:              -4144.80997841715816
  Core Hamiltonian energy:                                   1117.94797864505745
  Hartree energy:                                            1613.23042283678433
  Exchange-correlation energy:                               -347.10287209735867
  Dispersion energy:                                           -0.50028381241246

  Total energy:                                             -1761.23473224279178

  outer SCF iter =    3 RMS gradient =   0.84E-07 energy =      -1761.2347322428
  outer SCF loop converged in   3 iterations or   54 steps


 ENERGY| Total FORCE_EVAL ( QS ) energy [a.u.]:            -1761.234732244888164

 ATOMIC FORCES in [a.u.]

 # Atom   Kind   Element          X              Y              Z
      1      1      Ca          0.00908434     0.00161621    -0.00392445
      2      1      Ca         -0.00102941    -0.00036223    -0.00011494
      3      1      Ca          0.01190270    -0.00327511    -0.00169579
      4      1      Ca         -0.00260481    -0.00070192    -0.00010150
      5      2      Si         -0.00197583    -0.00084943    -0.00250622
      6      2      Si         -0.00618951    -0.00033443     0.00523363
      7      2      Si         -0.00298060    -0.00043854     0.00171228
      8      3      O          -0.03433187    -0.00073026    -0.01125236
      9      3      O           0.00144486     0.00056781     0.00079133
     10      3      O          -0.00115745    -0.00079717    -0.00145311
     11      3      O          -0.00767949    -0.00142884    -0.00229542
     12      3      O          -0.00896176     0.01205426     0.00426685
     13      3      O           0.00280110     0.00080150     0.00015405
     14      3      O           0.00221839     0.00003668    -0.00105407
     15      3      O           0.00013525    -0.00115677     0.00139696
     16      3      O           0.00099238    -0.00066855    -0.00039379
     17      3      O          -0.00451066    -0.00173279    -0.00143895
     18      3      O           0.00107599    -0.00017217     0.00105089
     19      3      O          -0.00694216     0.00131945     0.00022455
     20      3      O          -0.00262559     0.00033040    -0.00001209
     21      3      O          -0.00226920     0.00159972     0.00044441
     22      3      O          -0.01112751    -0.00117572     0.01029298
     23      3      O          -0.00679077     0.00024025    -0.00182929
     24      1      Ca         -0.00933446    -0.00091178     0.00184402
     25      1      Ca          0.00056300     0.00032703    -0.00086305
     26      1      Ca         -0.01124038     0.00133641     0.00072959
     27      1      Ca          0.00062822     0.00045999     0.00023300
     28      2      Si         -0.02733067     0.00666777     0.00277908
     29      2      Si          0.00379614     0.00098870    -0.00205177
     30      2      Si          0.00224060     0.00115031    -0.00206395
     31      3      O           0.00648262    -0.00165368     0.00025891
     32      3      O          -0.00306097    -0.00101029    -0.00035326
     33      3      O          -0.00080145     0.00040857     0.00079078
     34      3      O           0.00653932     0.00156185     0.00058555
     35      3      O          -0.00092918    -0.00083101    -0.00047653
     36      3      O          -0.00271264    -0.00217124    -0.00048382
     37      3      O          -0.00192381    -0.00063216     0.00018430
     38      3      O          -0.00053061    -0.00019975    -0.00251223
     39      3      O           0.00085657    -0.00002651     0.00046567
     40      3      O           0.00403675     0.00119848     0.00196526
     41      3      O          -0.00164782    -0.00033100    -0.00034019
     42      3      O           0.00674509    -0.00044201     0.00054336
     43      3      O           0.00101278    -0.00063474     0.00102231
     44      3      O          -0.00172163     0.00072096     0.00013703
     45      3      O           0.00458990    -0.00049719    -0.00423080
     46      3      O           0.00166293     0.00085553    -0.00083037
     47      1      Ca          0.00980921    -0.00237599     0.00403544
     48      1      Ca          0.00833378     0.00215765    -0.00358477
     49      1      Ca         -0.00090863    -0.00032059     0.00041660
     50      1      Ca          0.01396241    -0.00475920    -0.00076918
     51      1      Ca         -0.00126335    -0.00054987    -0.00031328
     52      2      Si          0.02619581    -0.00699068    -0.00083091
     53      2      Si         -0.00448515    -0.00171007     0.00265990
     54      2      Si         -0.00231445    -0.00102631     0.00286182
     55      3      O          -0.00887638     0.00253660    -0.00225297
     56      3      O           0.00653446     0.00139243     0.00106337
     57      3      O          -0.00193559     0.00069920    -0.00100271
     58      3      O          -0.00345148    -0.00129570    -0.00115378
     59      3      O           0.00321982     0.00138915    -0.00004420
     60      3      O           0.00119476     0.00256292     0.00000129
     61      3      O          -0.00095375     0.00082311    -0.00118343
     62      3      O           0.00270153    -0.00137476     0.00218148
     63      3      O          -0.00135061    -0.00029093    -0.00028593
     64      3      O          -0.00296173    -0.00088470    -0.00155827
     65      3      O           0.00403994     0.00014118     0.00121182
     66      3      O          -0.00440188     0.00090527     0.00042976
     67      3      O          -0.00286058     0.00032378    -0.00058461
     68      3      O          -0.00161025     0.00042204     0.00078384
     69      3      O          -0.00416509     0.00035385     0.00524509
     70      3      O          -0.00867127    -0.00128081    -0.00288742
     71      1      Ca         -0.00991267    -0.00028363     0.00213254
     72      1      Ca          0.00095016     0.00011935    -0.00028114
     73      1      Ca         -0.00961961     0.00060278     0.00076923
     74      1      Ca          0.00194019     0.00025851    -0.00060599
     75      2      Si          0.00288535     0.00075372     0.00341151
     76      2      Si          0.00500520     0.00001773    -0.00466097
     77      2      Si          0.00268389     0.00069282    -0.00131164
     78      3      O           0.02881837     0.00254765     0.00842844
     79      3      O           0.00063018     0.00053676    -0.00071086
     80      3      O          -0.00032820     0.00019431     0.00213677
     81      3      O           0.00486667     0.00156504     0.00194336
     82      3      O           0.01463084    -0.01251599    -0.00599223
     83      3      O           0.00051768    -0.00012866    -0.00046252
     84      3      O           0.00095317     0.00035215     0.00051181
     85      3      O           0.00306234     0.00024738    -0.00229775
     86      3      O          -0.00123788     0.00027137     0.00050943
     87      3      O           0.00764817     0.00105735     0.00107215
     88      3      O          -0.00457681    -0.00027393    -0.00035937
     89      3      O           0.00478328    -0.00074243     0.00062050
     90      3      O           0.00044481     0.00018226     0.00100786
     91      3      O           0.00049402    -0.00029780     0.00009007
     92      3      O           0.00431541     0.00003085    -0.00854289
     93      3      O           0.00544445     0.00100744    -0.00080304
     94      1      Ca          0.00945566    -0.00145456     0.00450742
     95      4      H          -0.00071192     0.00011803     0.00006065
     96      4      H          -0.00009104    -0.00007984    -0.00031689
     97      4      H          -0.00037886     0.00044402    -0.00036590
     98      4      H          -0.00055377    -0.00103781     0.00005017
     99      4      H          -0.00011816     0.00403575    -0.00242732
    100      4      H          -0.00153402    -0.00088804    -0.00409558
    101      4      H          -0.00056821     0.00127569     0.00027582
    102      4      H           0.00016497     0.00025880    -0.00128851
    103      4      H          -0.00032169     0.00050433    -0.00081574
    104      4      H           0.00120220     0.00045389    -0.00001035
    105      4      H          -0.00063342    -0.00077539    -0.00000769
    106      4      H          -0.00007263    -0.00028141     0.00006413
    107      4      H           0.00244102     0.00063883     0.00128338
    108      4      H          -0.00081757    -0.00155798     0.00049549
    109      4      H          -0.00029668    -0.00079384    -0.00100230
    110      4      H          -0.00072577     0.00071293     0.00062419
    111      4      H           0.00004401    -0.00011390     0.00047270
    112      4      H          -0.00023057    -0.00004788    -0.00007845
    113      4      H          -0.00048560    -0.00027608    -0.00042694
    114      4      H           0.00024127    -0.00044431    -0.00018993
    115      4      H           0.00085558     0.00186635    -0.00096680
    116      4      H          -0.00200466    -0.00041520    -0.00177257
    117      4      H          -0.00069735     0.00103174     0.00038661
    118      4      H           0.00019111     0.00010357    -0.00121108
    119      4      H           0.00061511     0.00010136    -0.00002844
    120      4      H           0.00238688    -0.00061238    -0.00050502
    121      4      H          -0.00046619    -0.00103630     0.00006797
    122      4      H           0.00062538     0.00058056     0.00000539
    123      4      H           0.00153756     0.00121827     0.00396907
    124      4      H           0.00004016    -0.00271429     0.00127312
    125      4      H          -0.00046498    -0.00064806    -0.00085621
    126      4      H          -0.00080569     0.00106081     0.00072810
    127      4      H           0.00004864     0.00010740    -0.00037043
    128      4      H          -0.00003683    -0.00005736    -0.00029291
    129      4      H          -0.00315003     0.00064693     0.00115155
    130      4      H           0.00016478    -0.00023983     0.00030285
    131      4      H           0.00015292    -0.00007369     0.00036738
    132      4      H           0.00059994    -0.00026352     0.00132803
    133      4      H          -0.00022233     0.00029845    -0.00034239
    134      4      H           0.00001631    -0.00005413    -0.00033278
    135      4      H          -0.00330247     0.00070500     0.00127035
    136      4      H          -0.00005345    -0.00005567     0.00029489
    137      4      H           0.00003428    -0.00017076     0.00036531
    138      4      H           0.00058910    -0.00039571     0.00132654
 SUM OF ATOMIC FORCES          -0.00075776    -0.00020599    -0.00116010     0.00140088

 STRESS| Analytical stress tensor [GPa]
 STRESS|                        x                   y                   z
 STRESS|      x        1.32108495948E+00  -3.76299535070E-01  -4.19277063343E-01
 STRESS|      y       -3.76299535070E-01   5.55059885832E-01  -1.21416049214E-01
 STRESS|      z       -4.19277063343E-01  -1.21416049214E-01   5.64109723412E-01
 STRESS| 1/3 Trace                                             8.13418189575E-01
 STRESS| Determinant                                           1.78408835518E-01

 STRESS| Eigenvectors and eigenvalues of the analytical stress tensor [GPa]
 STRESS|                        1                   2                   3
 STRESS| Eigenvalues   1.64370165929E-01   6.80226583314E-01   1.59565781948E+00
 STRESS|      x           0.437669605986      0.020981802140      0.898891027864
 STRESS|      y           0.623022453269     -0.727902261444     -0.286358726961
 STRESS|      z           0.648296489824      0.685359804601     -0.331652829806

 OPT| **************************************************************************
 OPT| Step number                                                              0
 OPT| Optimization method                                                   BFGS
 OPT| Total energy [hartree]                                    -1761.2347322449
 OPT| Used time [s]                                                       99.217
 OPT| **************************************************************************
 OPT| Estimated peak process memory [MiB]                                    451

 --------------------------
 OPTIMIZATION STEP:      1
 --------------------------

 Number of electrons:                                                        656
 Number of occupied orbitals:                                                328
 Number of molecular orbitals:                                               328

 Number of orbital functions:                                               1460
 Number of independent orbital functions:                                   1460

 Extrapolation method: ASPC


 SCF WAVEFUNCTION OPTIMIZATION

  ----------------------------------- OT ---------------------------------------
  Minimizer      : DIIS                : direct inversion
                                         in the iterative subspace
                                         using   7 DIIS vectors
                                         safer DIIS on
  Preconditioner : FULL_KINETIC        : inversion of T + eS
  Precond_solver : DEFAULT
  stepsize       :    0.15000000                  energy_gap     :    0.20000000
  eps_taylor     :   0.10000E-15                  max_taylor     :             4
  ----------------------------------- OT ---------------------------------------

  Step     Update method      Time    Convergence         Total energy    Change
  ------------------------------------------------------------------------------
     1 OT DIIS     0.15E+00    1.0     0.00023642     -1761.2386688998 -1.76E+03
     2 OT DIIS     0.15E+00    1.7     0.00014731     -1761.2418393874 -3.17E-03
     3 OT DIIS     0.15E+00    1.7     0.00008844     -1761.2439947271 -2.16E-03
     4 OT DIIS     0.15E+00    1.8     0.00005099     -1761.2453182337 -1.32E-03
     5 OT DIIS     0.15E+00    1.7     0.00003470     -1761.2457905103 -4.72E-04
     6 OT DIIS     0.15E+00    1.7     0.00002396     -1761.2460171547 -2.27E-04
     7 OT DIIS     0.15E+00    1.7     0.00001459     -1761.2461457213 -1.29E-04
     8 OT DIIS     0.15E+00    1.8     0.00000930     -1761.2461887505 -4.30E-05
     9 OT DIIS     0.15E+00    1.7     0.00000651     -1761.2462028406 -1.41E-05
    10 OT DIIS     0.15E+00    1.7     0.00000423     -1761.2462106614 -7.82E-06
    11 OT DIIS     0.15E+00    1.9     0.00000287     -1761.2462139665 -3.31E-06
    12 OT DIIS     0.15E+00    1.8     0.00000192     -1761.2462155681 -1.60E-06
    13 OT DIIS     0.15E+00    1.7     0.00000128     -1761.2462162966 -7.28E-07
    14 OT DIIS     0.15E+00    1.7     0.00000083     -1761.2462166175 -3.21E-07
    15 OT DIIS     0.15E+00    1.7     0.00000057     -1761.2462167346 -1.17E-07
    16 OT DIIS     0.15E+00    1.8     0.00000039     -1761.2462167908 -5.62E-08
    17 OT DIIS     0.15E+00    1.7     0.00000028     -1761.2462168134 -2.26E-08
    18 OT DIIS     0.15E+00    1.7     0.00000021     -1761.2462168247 -1.13E-08
    19 OT DIIS     0.15E+00    1.7     0.00000015     -1761.2462168316 -6.85E-09
    20 OT DIIS     0.15E+00    1.9     0.00000011     -1761.2462168348 -3.26E-09
    21 OT DIIS     0.15E+00    1.7     0.00000009     -1761.2462168368 -1.96E-09

  *** SCF run converged in    21 steps ***


  Electronic density on regular grids:       -655.9999999993        0.0000000007
  Core density on regular grids:              655.9999999997       -0.0000000003
  Total charge density on r-space grids:        0.0000000003
  Total charge density g-space grids:           0.0000000003

  Overlap energy of the core charge distribution:               0.00000060774162
  Self energy of the core charge distribution:              -4144.80997841715816
  Core Hamiltonian energy:                                   1117.92767027151285
  Hartree energy:                                            1613.23759803110806
  Exchange-correlation energy:                               -347.10132419224584
  Dispersion energy:                                           -0.50018313774218

  Total energy:                                             -1761.24621683678356

  outer SCF iter =    1 RMS gradient =   0.86E-07 energy =      -1761.2462168368
  outer SCF loop converged in   1 iterations or   21 steps


 ENERGY| Total FORCE_EVAL ( QS ) energy [a.u.]:            -1761.246216838041164

 ATOMIC FORCES in [a.u.]

 # Atom   Kind   Element          X              Y              Z
      1      1      Ca         -0.00067401    -0.00327858     0.00055239
      2      1      Ca          0.00084730     0.00001086    -0.00029575
      3      1      Ca          0.00006058     0.00033159     0.00161563
      4      1      Ca          0.00063350     0.00070382     0.00001888
      5      2      Si          0.00109681    -0.00054892     0.00166747
      6      2      Si          0.00101267     0.00129492    -0.00016216
      7      2      Si          0.00139840     0.00090962    -0.00072484
      8      3      O          -0.01205602    -0.00184584    -0.00578188
      9      3      O           0.00006336    -0.00202644    -0.00049103
     10      3      O          -0.00120653     0.00200070    -0.00053766
     11      3      O          -0.00137401    -0.00155205     0.00222410
     12      3      O          -0.00707275     0.00322764    -0.00099506
     13      3      O          -0.00078594     0.00206400    -0.00118366
     14      3      O          -0.00277792    -0.00077524     0.00091078
     15      3      O          -0.00057072    -0.00053642     0.00076183
     16      3      O          -0.00058262     0.00007794    -0.00029852
     17      3      O          -0.00187096    -0.00085545     0.00071981
     18      3      O          -0.00007638     0.00001962    -0.00073150
     19      3      O           0.00140841    -0.00123663    -0.00056217
     20      3      O          -0.00176727    -0.00055304     0.00054426
     21      3      O          -0.00156860     0.00001816     0.00016992
     22      3      O          -0.00047528    -0.00053090    -0.00158801
     23      3      O          -0.00102396    -0.00101074    -0.00102306
     24      1      Ca         -0.00034566     0.00174094     0.00030720
     25      1      Ca         -0.00118251     0.00000716     0.00078068
     26      1      Ca         -0.00011605     0.00170842    -0.00076381
     27      1      Ca         -0.00020555    -0.00057628    -0.00009993
     28      2      Si         -0.02031773     0.00457085    -0.00403544
     29      2      Si         -0.00208288    -0.00134050     0.00063562
     30      2      Si         -0.00255631    -0.00217234     0.00129930
     31      3      O           0.00246206    -0.00064415    -0.00035195
     32      3      O          -0.00022026     0.00077787    -0.00023230
     33      3      O          -0.00140886    -0.00169688     0.00096555
     34      3      O           0.00154399     0.00102087    -0.00168146
     35      3      O           0.00141526     0.00246136     0.00075616
     36      3      O           0.00212099    -0.00097254     0.00156498
     37      3      O           0.00341257     0.00125701    -0.00165725
     38      3      O           0.00173638    -0.00048758    -0.00007159
     39      3      O           0.00048753     0.00078908     0.00025925
     40      3      O           0.00332392     0.00087539    -0.00137050
     41      3      O          -0.00260902    -0.00021259    -0.00021777
     42      3      O          -0.00056932     0.00024690     0.00030274
     43      3      O           0.00095515     0.00005252    -0.00107935
     44      3      O          -0.00058598     0.00071867     0.00074852
     45      3      O           0.00074537     0.00181281     0.00114141
     46      3      O           0.00033264    -0.00028164     0.00237445
     47      1      Ca          0.00063906     0.00047382    -0.00094270
     48      1      Ca          0.00118543    -0.00425483     0.00079783
     49      1      Ca          0.00213079    -0.00042493    -0.00062493
     50      1      Ca          0.00024695     0.00037506     0.00216975
     51      1      Ca          0.00058054     0.00064021     0.00043495
     52      2      Si          0.01891524    -0.00420500     0.00480431
     53      2      Si          0.00099192     0.00092625    -0.00003268
     54      2      Si          0.00036841     0.00176042    -0.00128202
     55      3      O          -0.00102740     0.00088652    -0.00110650
     56      3      O          -0.00231907    -0.00207409    -0.00011015
     57      3      O           0.00173773     0.00113635    -0.00077625
     58      3      O          -0.00260764    -0.00052943     0.00238321
     59      3      O          -0.00110281    -0.00243184    -0.00225430
     60      3      O          -0.00180990     0.00229789    -0.00178000
     61      3      O          -0.00307549    -0.00012247     0.00016632
     62      3      O          -0.00002840    -0.00101990     0.00173814
     63      3      O           0.00233971     0.00039799     0.00089298
     64      3      O          -0.00213710    -0.00097782     0.00097984
     65      3      O          -0.00314679     0.00028896    -0.00066711
     66      3      O           0.00063968     0.00008242    -0.00081177
     67      3      O           0.00045998    -0.00096814     0.00055887
     68      3      O          -0.00052613    -0.00162376    -0.00034442
     69      3      O          -0.00068591    -0.00010857    -0.00046706
     70      3      O           0.00049676    -0.00130265    -0.00186967
     71      1      Ca         -0.00063117     0.00204003     0.00066010
     72      1      Ca         -0.00142808     0.00086638     0.00074338
     73      1      Ca          0.00065153     0.00110382    -0.00119786
     74      1      Ca         -0.00096933    -0.00082298    -0.00003577
     75      2      Si          0.00073788    -0.00032590    -0.00131449
     76      2      Si          0.00014258    -0.00016950     0.00164837
     77      2      Si          0.00030496    -0.00149750    -0.00132757
     78      3      O           0.01428161     0.00091450     0.00370445
     79      3      O          -0.00035962     0.00058370    -0.00028938
     80      3      O          -0.00019029    -0.00205736    -0.00080944
     81      3      O           0.00463121     0.00140015    -0.00156182
     82      3      O           0.00707039    -0.00329900    -0.00044201
     83      3      O           0.00132647    -0.00076531     0.00093093
     84      3      O           0.00216936     0.00015363    -0.00214020
     85      3      O           0.00084481     0.00029381    -0.00035626
     86      3      O          -0.00036854     0.00007287     0.00028623
     87      3      O           0.00117148     0.00190953     0.00117010
     88      3      O           0.00168020    -0.00031603    -0.00002652
     89      3      O           0.00292244     0.00002820     0.00042441
     90      3      O           0.00048061    -0.00037532    -0.00134728
     91      3      O           0.00090445     0.00216997     0.00075037
     92      3      O          -0.00004065     0.00011040     0.00027947
     93      3      O          -0.00283755    -0.00098362     0.00199088
     94      1      Ca          0.00129466     0.00009261    -0.00147443
     95      4      H          -0.00106364     0.00044568    -0.00005343
     96      4      H          -0.00040648     0.00020106    -0.00023706
     97      4      H          -0.00039891     0.00157521    -0.00022198
     98      4      H          -0.00104597    -0.00027885    -0.00006995
     99      4      H          -0.00156275     0.00046948     0.00083488
    100      4      H          -0.00194221     0.00097648    -0.00047171
    101      4      H          -0.00063712     0.00007448    -0.00058516
    102      4      H          -0.00058831    -0.00016003     0.00162778
    103      4      H           0.00059083    -0.00001080     0.00014187
    104      4      H           0.00039712     0.00028316     0.00095804
    105      4      H          -0.00060087     0.00018869    -0.00028251
    106      4      H          -0.00088388    -0.00027861    -0.00023898
    107      4      H           0.00167826    -0.00127096     0.00012697
    108      4      H           0.00091137    -0.00115027    -0.00112413
    109      4      H           0.00066731     0.00058008    -0.00060832
    110      4      H           0.00111611    -0.00078857    -0.00139607
    111      4      H          -0.00111469     0.00015103    -0.00028150
    112      4      H          -0.00010472     0.00023369    -0.00014701
    113      4      H          -0.00045077     0.00189318    -0.00027102
    114      4      H          -0.00106916    -0.00037163    -0.00001356
    115      4      H          -0.00056496     0.00043469     0.00095753
    116      4      H          -0.00088306     0.00086070    -0.00086948
    117      4      H          -0.00110989     0.00008211    -0.00053897
    118      4      H          -0.00108170    -0.00054304     0.00174762
    119      4      H           0.00069259    -0.00003482    -0.00001216
    120      4      H           0.00081499    -0.00007111     0.00092186
    121      4      H           0.00006896    -0.00061835    -0.00020767
    122      4      H           0.00062922    -0.00056076    -0.00011733
    123      4      H           0.00123279    -0.00067084     0.00017960
    124      4      H           0.00099563    -0.00055197    -0.00097362
    125      4      H           0.00156823     0.00043668    -0.00111105
    126      4      H           0.00224039    -0.00038693    -0.00067455
    127      4      H           0.00105560     0.00069109     0.00044945
    128      4      H           0.00032631     0.00005297     0.00030622
    129      4      H          -0.00296031     0.00014574     0.00007672
    130      4      H          -0.00127474    -0.00080528    -0.00025609
    131      4      H          -0.00056587     0.00000176    -0.00022425
    132      4      H           0.00208677     0.00029624     0.00008440
    133      4      H           0.00209736     0.00094416     0.00029294
    134      4      H           0.00110881    -0.00028779    -0.00000066
    135      4      H          -0.00182054     0.00020958    -0.00006487
    136      4      H          -0.00065847    -0.00037990    -0.00035400
    137      4      H          -0.00115477    -0.00007515    -0.00011963
    138      4      H           0.00133428     0.00028523     0.00022774
 SUM OF ATOMIC FORCES           0.00269786    -0.00186894    -0.00608651     0.00691498

 STRESS| Analytical stress tensor [GPa]
 STRESS|                        x                   y                   z
 STRESS|      x        1.32852426039E+00  -1.30268220163E-01  -4.03271492549E-02
 STRESS|      y       -1.30268220163E-01   5.24852348040E-01   6.02603550977E-03
 STRESS|      z       -4.03271492549E-02   6.02603550977E-03   4.63456640678E-01
 STRESS| 1/3 Trace                                             7.72277749704E-01
 STRESS| Determinant                                           3.14455362638E-01

 STRESS| Eigenvectors and eigenvalues of the analytical stress tensor [GPa]
 STRESS|                        1                   2                   3
 STRESS| Eigenvalues   4.61580738385E-01   5.04267163888E-01   1.35098534684E+00
 STRESS|      x           0.046581311109      0.155717759006      0.986702671014
 STRESS|      y           0.000767674651      0.987769026953     -0.155922288551
 STRESS|      z           0.998914206592     -0.008020531261     -0.045892035772

 OPT| **************************************************************************
 OPT| Step number                                                              1
 OPT| Optimization method                                                   BFGS
 OPT| Total energy [hartree]                                    -1761.2462168380
 OPT| Effective energy change [hartree]                            -0.0114845932
 OPT| Predicted energy change [hartree]                            -0.0116427546
 OPT| Scaling factor                                                0.0000000000
 OPT| Step size                                                     0.0973055624
 OPT| Trust radius                                                  0.3779452266
 OPT| Decrease in energy                                                     YES
 OPT| Used time [s]                                                       40.259
 OPT|
 OPT| Maximum step size                                             0.0973055624
 OPT| Convergence limit for maximum step size                       0.0030000000
 OPT| Maximum step size is converged                                          NO
 OPT|
 OPT| RMS step size                                                 0.0204720416
 OPT| Convergence limit for RMS step size                           0.0015000000
 OPT| RMS step size is converged                                              NO
 OPT|
 OPT| Maximum gradient                                              0.0203177266
 OPT| Convergence limit for maximum gradient                        0.0004500000
 OPT| Maximum gradient is converged                                           NO
 OPT|
 OPT| RMS gradient                                                  0.0021576977
 OPT| Convergence limit for RMS gradient                            0.0003000000
 OPT| RMS gradient is converged                                               NO
 OPT| **************************************************************************
 OPT| Estimated peak process memory after this step [MiB]                    512

 --------------------------
 OPTIMIZATION STEP:      2
 --------------------------

 Number of electrons:                                                        656
 Number of occupied orbitals:                                                328
 Number of molecular orbitals:                                               328

 Number of orbital functions:                                               1460
 Number of independent orbital functions:                                   1460

 Extrapolation method: ASPC


 SCF WAVEFUNCTION OPTIMIZATION

  ----------------------------------- OT ---------------------------------------
  Minimizer      : DIIS                : direct inversion
                                         in the iterative subspace
                                         using   7 DIIS vectors
                                         safer DIIS on
  Preconditioner : FULL_KINETIC        : inversion of T + eS
  Precond_solver : DEFAULT
  stepsize       :    0.15000000                  energy_gap     :    0.20000000
  eps_taylor     :   0.10000E-15                  max_taylor     :             4
  ----------------------------------- OT ---------------------------------------

  Step     Update method      Time    Convergence         Total energy    Change
  ------------------------------------------------------------------------------
     1 OT DIIS     0.15E+00    1.0     0.00028492     -1761.2387750742 -1.76E+03
     2 OT DIIS     0.15E+00    1.6     0.00017868     -1761.2433976573 -4.62E-03
     3 OT DIIS     0.15E+00    1.7     0.00010349     -1761.2465908227 -3.19E-03
     4 OT DIIS     0.15E+00    1.7     0.00005527     -1761.2483584476 -1.77E-03
     5 OT DIIS     0.15E+00    1.8     0.00003713     -1761.2488802016 -5.22E-04
     6 OT DIIS     0.15E+00    1.7     0.00002593     -1761.2491200736 -2.40E-04
     7 OT DIIS     0.15E+00    1.7     0.00001577     -1761.2492656525 -1.46E-04
     8 OT DIIS     0.15E+00    1.7     0.00001008     -1761.2493146630 -4.90E-05
     9 OT DIIS     0.15E+00    1.8     0.00000700     -1761.2493312105 -1.65E-05
    10 OT DIIS     0.15E+00    1.8     0.00000453     -1761.2493401438 -8.93E-06
    11 OT DIIS     0.15E+00    1.7     0.00000306     -1761.2493439212 -3.78E-06
    12 OT DIIS     0.15E+00    1.7     0.00000208     -1761.2493457048 -1.78E-06
    13 OT DIIS     0.15E+00    1.8     0.00000142     -1761.2493465337 -8.29E-07
    14 OT DIIS     0.15E+00    1.7     0.00000092     -1761.2493469351 -4.01E-07
    15 OT DIIS     0.15E+00    1.7     0.00000064     -1761.2493470838 -1.49E-07
    16 OT DIIS     0.15E+00    1.7     0.00000044     -1761.2493471574 -7.36E-08
    17 OT DIIS     0.15E+00    1.9     0.00000032     -1761.2493471868 -2.93E-08
    18 OT DIIS     0.15E+00    1.7     0.00000024     -1761.2493472017 -1.50E-08
    19 OT DIIS     0.15E+00    1.7     0.00000017     -1761.2493472109 -9.18E-09
    20 OT DIIS     0.15E+00    1.7     0.00000013     -1761.2493472150 -4.08E-09
    21 OT DIIS     0.15E+00    1.9     0.00000010     -1761.2493472175 -2.49E-09

  *** SCF run converged in    21 steps ***


  Electronic density on regular grids:       -655.9999999993        0.0000000007
  Core density on regular grids:              655.9999999997       -0.0000000003
  Total charge density on r-space grids:        0.0000000003
  Total charge density g-space grids:           0.0000000003

  Overlap energy of the core charge distribution:               0.00000061639480
  Self energy of the core charge distribution:              -4144.80997841715816
  Core Hamiltonian energy:                                   1117.94659179315227
  Hartree energy:                                            1613.22020485916096
  Exchange-correlation energy:                               -347.10601280389335
  Dispersion energy:                                           -0.50015326514325

  Total energy:                                             -1761.24934721748718

  outer SCF iter =    1 RMS gradient =   0.98E-07 energy =      -1761.2493472175
  outer SCF loop converged in   1 iterations or   21 steps


 ENERGY| Total FORCE_EVAL ( QS ) energy [a.u.]:            -1761.249347219084484

 ATOMIC FORCES in [a.u.]

 # Atom   Kind   Element          X              Y              Z
      1      1      Ca         -0.00064040    -0.00033444     0.00079364
      2      1      Ca          0.00075829     0.00016758    -0.00003632
      3      1      Ca         -0.00122168    -0.00045856     0.00092998
      4      1      Ca          0.00091560     0.00013909     0.00024398
      5      2      Si         -0.00024053    -0.00041489     0.00034029
      6      2      Si         -0.00151867    -0.00021921    -0.00156750
      7      2      Si         -0.00001602    -0.00038019    -0.00011964
      8      3      O          -0.00593771    -0.00183773    -0.00204254
      9      3      O           0.00011617    -0.00049165    -0.00001152
     10      3      O          -0.00150093     0.00104349     0.00046006
     11      3      O           0.00105279     0.00017304    -0.00062990
     12      3      O          -0.00209651     0.00379827     0.00052274
     13      3      O           0.00000690     0.00066208     0.00019379
     14      3      O          -0.00051345     0.00090819     0.00022875
     15      3      O           0.00059395     0.00042729     0.00020509
     16      3      O          -0.00113828     0.00063062    -0.00013817
     17      3      O           0.00039859     0.00059024     0.00043211
     18      3      O          -0.00045259    -0.00049016    -0.00059032
     19      3      O           0.00060823     0.00061868    -0.00026767
     20      3      O          -0.00060822    -0.00014070     0.00022905
     21      3      O          -0.00084212    -0.00077942    -0.00039978
     22      3      O           0.00227067     0.00171380    -0.00391786
     23      3      O          -0.00031839    -0.00076865    -0.00088484
     24      1      Ca         -0.00011373     0.00106844    -0.00037443
     25      1      Ca         -0.00114049    -0.00043622     0.00060283
     26      1      Ca         -0.00008516     0.00063107    -0.00106670
     27      1      Ca         -0.00092838     0.00009488    -0.00021947
     28      2      Si         -0.00932189     0.00095863    -0.00248696
     29      2      Si          0.00125924     0.00045792    -0.00061264
     30      2      Si          0.00066982     0.00025270    -0.00040701
     31      3      O           0.00105898     0.00041640    -0.00034547
     32      3      O           0.00005202     0.00100819    -0.00033989
     33      3      O           0.00041236     0.00086964    -0.00095182
     34      3      O          -0.00193297    -0.00103222     0.00275975
     35      3      O           0.00123982    -0.00046850    -0.00024385
     36      3      O          -0.00051347     0.00028172    -0.00031887
     37      3      O          -0.00144773    -0.00077959     0.00083341
     38      3      O          -0.00030930     0.00038316    -0.00003478
     39      3      O           0.00077478    -0.00101020    -0.00049637
     40      3      O           0.00226802    -0.00021150     0.00133492
     41      3      O          -0.00113789     0.00015484     0.00028725
     42      3      O          -0.00057925    -0.00021694    -0.00048043
     43      3      O           0.00112782    -0.00015324     0.00012396
     44      3      O          -0.00020406    -0.00031645    -0.00065582
     45      3      O          -0.00088922    -0.00071357     0.00119533
     46      3      O          -0.00004860     0.00087411    -0.00001435
     47      1      Ca         -0.00130962     0.00069576    -0.00046283
     48      1      Ca         -0.00017256    -0.00011040     0.00087289
     49      1      Ca          0.00088163     0.00069594    -0.00018125
     50      1      Ca         -0.00004329    -0.00100401     0.00154640
     51      1      Ca          0.00118699     0.00019715    -0.00028345
     52      2      Si          0.00891010    -0.00188454     0.00169384
     53      2      Si         -0.00092166    -0.00018766     0.00030335
     54      2      Si         -0.00021280    -0.00011883     0.00024440
     55      3      O           0.00028738    -0.00081136     0.00006506
     56      3      O          -0.00148208    -0.00027232    -0.00060272
     57      3      O          -0.00019680    -0.00015743    -0.00028182
     58      3      O          -0.00173499     0.00077381    -0.00122705
     59      3      O           0.00003691     0.00012849    -0.00014329
     60      3      O          -0.00142650    -0.00106902     0.00081749
     61      3      O          -0.00089658     0.00038638    -0.00029052
     62      3      O          -0.00017055     0.00101670    -0.00030292
     63      3      O          -0.00078553     0.00044535    -0.00087458
     64      3      O          -0.00107127     0.00054168    -0.00005804
     65      3      O           0.00003945    -0.00066751    -0.00038276
     66      3      O          -0.00063295     0.00004986    -0.00023405
     67      3      O           0.00058397     0.00030648     0.00098842
     68      3      O          -0.00113210    -0.00082394    -0.00040436
     69      3      O           0.00047656     0.00049298    -0.00198302
     70      3      O           0.00054629    -0.00052255    -0.00097080
     71      1      Ca          0.00143386    -0.00000149    -0.00060355
     72      1      Ca         -0.00020964    -0.00090427     0.00074910
     73      1      Ca          0.00059746     0.00070832    -0.00049364
     74      1      Ca         -0.00081370     0.00016181     0.00037417
     75      2      Si          0.00046949    -0.00052392    -0.00071776
     76      2      Si         -0.00002926     0.00031317    -0.00000975
     77      2      Si         -0.00018110     0.00105082    -0.00037762
     78      3      O           0.00729676     0.00303530     0.00177601
     79      3      O          -0.00052081     0.00058359    -0.00021130
     80      3      O           0.00118434     0.00064043     0.00003713
     81      3      O           0.00152181    -0.00062944     0.00083765
     82      3      O           0.00519948    -0.00416958    -0.00197607
     83      3      O          -0.00020668    -0.00010117    -0.00057339
     84      3      O          -0.00104212     0.00011428     0.00100042
     85      3      O          -0.00017568     0.00017873    -0.00028590
     86      3      O           0.00039909    -0.00101513    -0.00035602
     87      3      O           0.00028294    -0.00066879     0.00058502
     88      3      O           0.00096180     0.00056719     0.00037220
     89      3      O           0.00146711     0.00076850    -0.00060078
     90      3      O           0.00095231    -0.00054613     0.00031892
     91      3      O          -0.00034349    -0.00071519    -0.00021111
     92      3      O          -0.00096025    -0.00048116     0.00175621
     93      3      O          -0.00047411     0.00006173    -0.00011171
     94      1      Ca         -0.00093807     0.00005504    -0.00095515
     95      4      H          -0.00101844     0.00014284    -0.00009125
     96      4      H          -0.00061363     0.00007214     0.00008664
     97      4      H          -0.00025065     0.00102730    -0.00000056
     98      4      H          -0.00112105     0.00095825     0.00006641
     99      4      H          -0.00049335    -0.00100895     0.00048011
    100      4      H          -0.00324903    -0.00011232     0.00228324
    101      4      H          -0.00068284    -0.00029520     0.00010056
    102      4      H          -0.00089886    -0.00053390     0.00119458
    103      4      H           0.00023176    -0.00017362    -0.00020204
    104      4      H           0.00040322     0.00053379     0.00050387
    105      4      H          -0.00014889     0.00027249     0.00015295
    106      4      H          -0.00087134     0.00038950     0.00003706
    107      4      H           0.00176358    -0.00017879    -0.00072553
    108      4      H           0.00049337    -0.00004873    -0.00024862
    109      4      H           0.00099134    -0.00017770     0.00049418
    110      4      H           0.00119917    -0.00082747     0.00020302
    111      4      H          -0.00082045    -0.00008751    -0.00035166
    112      4      H          -0.00004671    -0.00008259    -0.00009165
    113      4      H           0.00025141     0.00070427    -0.00012650
    114      4      H          -0.00041876     0.00030656    -0.00001361
    115      4      H          -0.00002846     0.00004024     0.00031520
    116      4      H          -0.00145874     0.00029282     0.00080481
    117      4      H          -0.00035460    -0.00047972     0.00037857
    118      4      H          -0.00065430    -0.00100691     0.00049757
    119      4      H          -0.00027871    -0.00032619    -0.00031091
    120      4      H           0.00038930     0.00051469     0.00029188
    121      4      H           0.00062216     0.00080483     0.00021615
    122      4      H           0.00006144    -0.00017330     0.00000493
    123      4      H           0.00216840    -0.00074835    -0.00199716
    124      4      H           0.00060565     0.00011539    -0.00064707
    125      4      H           0.00076483    -0.00002832     0.00071834
    126      4      H           0.00127310    -0.00051828    -0.00039835
    127      4      H           0.00115795    -0.00003211     0.00042653
    128      4      H           0.00019830     0.00012958     0.00019243
    129      4      H          -0.00132916    -0.00010702     0.00004552
    130      4      H          -0.00128631    -0.00063818    -0.00004029
    131      4      H          -0.00108114    -0.00004492    -0.00000950
    132      4      H           0.00152688     0.00035516     0.00007574
    133      4      H           0.00175143     0.00015020     0.00050432
    134      4      H           0.00035313     0.00038312     0.00042358
    135      4      H          -0.00083429    -0.00016362     0.00009028
    136      4      H          -0.00072644    -0.00006902    -0.00033084
    137      4      H          -0.00069449    -0.00026993    -0.00051291
    138      4      H           0.00184312     0.00049536     0.00002400
 SUM OF ATOMIC FORCES          -0.00479312     0.00280957    -0.00525249     0.00764568

 STRESS| Analytical stress tensor [GPa]
 STRESS|                        x                   y                   z
 STRESS|      x        1.38818057390E+00  -2.90967300994E-02   2.92573547404E-02
 STRESS|      y       -2.90967300994E-02   5.55081454049E-01  -2.99175037376E-02
 STRESS|      z        2.92573547404E-02  -2.99175037376E-02   4.32983819779E-01
 STRESS| 1/3 Trace                                             7.92081949243E-01
 STRESS| Determinant                                           3.31603825471E-01

 STRESS| Eigenvectors and eigenvalues of the analytical stress tensor [GPa]
 STRESS|                        1                   2                   3
 STRESS| Eigenvalues   4.25542982883E-01   5.60548232151E-01   1.39015463270E+00
 STRESS|      x          -0.022987841874      0.042012810789      0.998852583145
 STRESS|      y           0.220066637286      0.974822638841     -0.035937417217
 STRESS|      z           0.975213942825     -0.218988005453      0.031654686670

 OPT| **************************************************************************
 OPT| Step number                                                              2
 OPT| Optimization method                                                   BFGS
 OPT| Total energy [hartree]                                    -1761.2493472191
 OPT| Effective energy change [hartree]                            -0.0031303810
 OPT| Predicted energy change [hartree]                            -0.0026645436
 OPT| Scaling factor                                                0.0000000000
 OPT| Step size                                                     0.0371374466
 OPT| Trust radius                                                  0.3779452266
 OPT| Decrease in energy                                                     YES
 OPT| Used time [s]                                                       40.234
 OPT|
 OPT| Maximum step size                                             0.0371374466
 OPT| Convergence limit for maximum step size                       0.0030000000
 OPT| Maximum step size is converged                                          NO
 OPT|
 OPT| RMS step size                                                 0.0103586409
 OPT| Convergence limit for RMS step size                           0.0015000000
 OPT| RMS step size is converged                                              NO
 OPT|
 OPT| Maximum gradient                                              0.0093218866
 OPT| Convergence limit for maximum gradient                        0.0004500000
 OPT| Maximum gradient is converged                                           NO
 OPT|
 OPT| RMS gradient                                                  0.0012012337
 OPT| Convergence limit for RMS gradient                            0.0003000000
 OPT| RMS gradient is converged                                               NO
 OPT| **************************************************************************
 OPT| Estimated peak process memory after this step [MiB]                    512

 --------------------------
 OPTIMIZATION STEP:      3
 --------------------------

 Number of electrons:                                                        656
 Number of occupied orbitals:                                                328
 Number of molecular orbitals:                                               328

 Number of orbital functions:                                               1460
 Number of independent orbital functions:                                   1460

 Extrapolation method: ASPC


 SCF WAVEFUNCTION OPTIMIZATION

  ----------------------------------- OT ---------------------------------------
  Minimizer      : DIIS                : direct inversion
                                         in the iterative subspace
                                         using   7 DIIS vectors
                                         safer DIIS on
  Preconditioner : FULL_KINETIC        : inversion of T + eS
  Precond_solver : DEFAULT
  stepsize       :    0.15000000                  energy_gap     :    0.20000000
  eps_taylor     :   0.10000E-15                  max_taylor     :             4
  ----------------------------------- OT ---------------------------------------

  Step     Update method      Time    Convergence         Total energy    Change
  ------------------------------------------------------------------------------
     1 OT DIIS     0.15E+00    1.0     0.00021597     -1761.2446423795 -1.76E+03
     2 OT DIIS     0.15E+00    1.9     0.00013832     -1761.2473262926 -2.68E-03
     3 OT DIIS     0.15E+00    1.7     0.00007780     -1761.2492913981 -1.97E-03
     4 OT DIIS     0.15E+00    1.7     0.00003991     -1761.2502769958 -9.86E-04
     5 OT DIIS     0.15E+00    1.6     0.00002598     -1761.2505472917 -2.70E-04
     6 OT DIIS     0.15E+00    1.8     0.00001792     -1761.2506634053 -1.16E-04
     7 OT DIIS     0.15E+00    1.7     0.00001097     -1761.2507298127 -6.64E-05
     8 OT DIIS     0.15E+00    1.8     0.00000693     -1761.2507529966 -2.32E-05
     9 OT DIIS     0.15E+00    1.7     0.00000475     -1761.2507607447 -7.75E-06
    10 OT DIIS     0.15E+00    1.8     0.00000305     -1761.2507646837 -3.94E-06
    11 OT DIIS     0.15E+00    1.7     0.00000201     -1761.2507663682 -1.68E-06
    12 OT DIIS     0.15E+00    1.7     0.00000138     -1761.2507671002 -7.32E-07
    13 OT DIIS     0.15E+00    1.7     0.00000096     -1761.2507674507 -3.50E-07
    14 OT DIIS     0.15E+00    1.9     0.00000062     -1761.2507676344 -1.84E-07
    15 OT DIIS     0.15E+00    1.7     0.00000044     -1761.2507677014 -6.70E-08
    16 OT DIIS     0.15E+00    1.7     0.00000031     -1761.2507677362 -3.48E-08
    17 OT DIIS     0.15E+00    1.7     0.00000022     -1761.2507677510 -1.48E-08
    18 OT DIIS     0.15E+00    1.9     0.00000016     -1761.2507677586 -7.55E-09
    19 OT DIIS     0.15E+00    1.7     0.00000012     -1761.2507677632 -4.66E-09
    20 OT DIIS     0.15E+00    1.7     0.00000009     -1761.2507677652 -2.00E-09

  *** SCF run converged in    20 steps ***


  Electronic density on regular grids:       -655.9999999993        0.0000000007
  Core density on regular grids:              655.9999999997       -0.0000000003
  Total charge density on r-space grids:        0.0000000003
  Total charge density g-space grids:           0.0000000003

  Overlap energy of the core charge distribution:               0.00000062255676
  Self energy of the core charge distribution:              -4144.80997841715816
  Core Hamiltonian energy:                                   1117.94682579519258
  Hartree energy:                                            1613.21863697266349
  Exchange-correlation energy:                               -347.10610447606200
  Dispersion energy:                                           -0.50014826243909

  Total energy:                                             -1761.25076776524679

  outer SCF iter =    1 RMS gradient =   0.88E-07 energy =      -1761.2507677652
  outer SCF loop converged in   1 iterations or   20 steps


 ENERGY| Total FORCE_EVAL ( QS ) energy [a.u.]:            -1761.250767766439594

 ATOMIC FORCES in [a.u.]

 # Atom   Kind   Element          X              Y              Z
      1      1      Ca         -0.00069186     0.00076149     0.00036731
      2      1      Ca         -0.00030790     0.00004967    -0.00072962
      3      1      Ca         -0.00075544    -0.00043201     0.00024655
      4      1      Ca         -0.00010993    -0.00034364    -0.00023427
      5      2      Si          0.00012994    -0.00000288    -0.00030468
      6      2      Si         -0.00023574    -0.00016619    -0.00158023
      7      2      Si         -0.00036092    -0.00061942    -0.00038508
      8      3      O          -0.00006501    -0.00076902     0.00169061
      9      3      O           0.00017252    -0.00023208     0.00006157
     10      3      O           0.00069250    -0.00088175    -0.00050289
     11      3      O           0.00087762     0.00067712     0.00004017
     12      3      O          -0.00149486     0.00225443     0.00078874
     13      3      O          -0.00031327     0.00020401     0.00037539
     14      3      O          -0.00077634     0.00136648    -0.00040909
     15      3      O           0.00010395     0.00020577    -0.00021806
     16      3      O          -0.00116688     0.00022951     0.00060716
     17      3      O           0.00024911     0.00078492     0.00046031
     18      3      O          -0.00033761    -0.00045054     0.00029265
     19      3      O          -0.00046149     0.00025553     0.00051517
     20      3      O           0.00123392     0.00021228     0.00010607
     21      3      O          -0.00009924    -0.00106907    -0.00013726
     22      3      O           0.00185849     0.00016119    -0.00251979
     23      3      O          -0.00080331    -0.00071964     0.00004501
     24      1      Ca          0.00034230    -0.00028161    -0.00005622
     25      1      Ca         -0.00007321    -0.00010729     0.00086484
     26      1      Ca          0.00040422     0.00038082    -0.00032490
     27      1      Ca         -0.00003391     0.00072627     0.00051786
     28      2      Si         -0.00130725     0.00103576    -0.00030081
     29      2      Si         -0.00034547     0.00026092    -0.00010405
     30      2      Si          0.00003331    -0.00082419    -0.00047835
     31      3      O          -0.00126023    -0.00029569    -0.00050367
     32      3      O          -0.00021942     0.00051875    -0.00049141
     33      3      O           0.00020918    -0.00053090    -0.00000033
     34      3      O          -0.00105855    -0.00021879    -0.00025388
     35      3      O           0.00292672     0.00056365     0.00040474
     36      3      O           0.00083141     0.00125806    -0.00099888
     37      3      O           0.00056104    -0.00072689    -0.00027551
     38      3      O          -0.00006300     0.00010938     0.00088138
     39      3      O          -0.00024408     0.00069510     0.00071690
     40      3      O           0.00115643    -0.00007262     0.00034031
     41      3      O           0.00165440     0.00055742     0.00039115
     42      3      O          -0.00029116    -0.00009523     0.00000919
     43      3      O           0.00006945    -0.00038870     0.00027103
     44      3      O           0.00045698    -0.00010422    -0.00047412
     45      3      O          -0.00092534    -0.00041661     0.00010802
     46      3      O           0.00050532     0.00045761    -0.00072053
     47      1      Ca         -0.00081583     0.00022338    -0.00025157
     48      1      Ca         -0.00092225     0.00153195    -0.00014753
     49      1      Ca         -0.00052108     0.00058044    -0.00023678
     50      1      Ca         -0.00035681    -0.00071374     0.00026774
     51      1      Ca          0.00021839    -0.00047127    -0.00042317
     52      2      Si          0.00091050     0.00022660    -0.00057264
     53      2      Si         -0.00012202    -0.00028963     0.00044925
     54      2      Si         -0.00035544    -0.00027473     0.00060947
     55      3      O           0.00090205    -0.00075353     0.00127314
     56      3      O           0.00057623     0.00071327    -0.00027949
     57      3      O          -0.00021467    -0.00005353    -0.00026851
     58      3      O          -0.00115904     0.00075451    -0.00135964
     59      3      O          -0.00039781     0.00103649     0.00061641
     60      3      O          -0.00103239    -0.00189206     0.00085260
     61      3      O           0.00128819     0.00032081    -0.00038722
     62      3      O          -0.00031843     0.00031590    -0.00144436
     63      3      O          -0.00092539    -0.00025840     0.00000691
     64      3      O          -0.00040907    -0.00000924    -0.00061951
     65      3      O           0.00180534    -0.00028212     0.00018212
     66      3      O          -0.00180066    -0.00037414     0.00061838
     67      3      O           0.00057611     0.00010461     0.00042733
     68      3      O          -0.00010403    -0.00031012    -0.00011147
     69      3      O           0.00015468     0.00018941    -0.00138359
     70      3      O          -0.00015082    -0.00051158     0.00070432
     71      1      Ca          0.00149081    -0.00091812    -0.00054046
     72      1      Ca          0.00017050    -0.00062171     0.00031640
     73      1      Ca          0.00057311     0.00036699     0.00037167
     74      1      Ca          0.00053674     0.00078484     0.00082031
     75      2      Si         -0.00038869     0.00027805    -0.00044399
     76      2      Si         -0.00091631     0.00011143     0.00005122
     77      2      Si         -0.00024190    -0.00035013     0.00067265
     78      3      O          -0.00070888    -0.00043230    -0.00098353
     79      3      O          -0.00066142     0.00026256    -0.00029300
     80      3      O           0.00019542     0.00029434     0.00020713
     81      3      O          -0.00296125    -0.00039619     0.00116324
     82      3      O           0.00417105    -0.00085062    -0.00162249
     83      3      O           0.00034758     0.00008128     0.00013686
     84      3      O           0.00085444    -0.00084197    -0.00001351
     85      3      O           0.00017827     0.00004472     0.00027814
     86      3      O           0.00047539     0.00086917     0.00005016
     87      3      O          -0.00065386    -0.00024902    -0.00091705
     88      3      O          -0.00125879     0.00026656     0.00019022
     89      3      O          -0.00206718     0.00019035    -0.00045456
     90      3      O           0.00048235    -0.00063269     0.00036537
     91      3      O          -0.00079304    -0.00094411    -0.00088461
     92      3      O          -0.00045099    -0.00028365     0.00145799
     93      3      O           0.00130275     0.00082358    -0.00112159
     94      1      Ca         -0.00084779     0.00006215    -0.00002827
     95      4      H          -0.00114847    -0.00012852    -0.00046660
     96      4      H          -0.00104200    -0.00014587     0.00031089
     97      4      H          -0.00010343     0.00045678     0.00006888
     98      4      H          -0.00089728     0.00151313     0.00018002
     99      4      H          -0.00052258    -0.00044919     0.00030162
    100      4      H          -0.00233469     0.00068969     0.00213855
    101      4      H          -0.00046666    -0.00026416     0.00058837
    102      4      H          -0.00095176    -0.00051352    -0.00009552
    103      4      H           0.00035481     0.00017706    -0.00054202
    104      4      H           0.00079122     0.00036676     0.00034621
    105      4      H          -0.00028225    -0.00021617     0.00012819
    106      4      H          -0.00054037     0.00030361     0.00017423
    107      4      H           0.00077148     0.00010367    -0.00026351
    108      4      H           0.00034242     0.00009843     0.00001437
    109      4      H           0.00052037     0.00002538     0.00100082
    110      4      H           0.00052300    -0.00026500    -0.00001946
    111      4      H          -0.00056264    -0.00001858    -0.00036522
    112      4      H          -0.00018191    -0.00015598     0.00000679
    113      4      H           0.00030105    -0.00014661     0.00009104
    114      4      H          -0.00013241     0.00048671     0.00006122
[...]
 flops     5 x    13 x    32          51053516800       0.0%    100.0%      0.0%     
 flops    13 x     5 x    32          51053516800       0.0%    100.0%      0.0%     
 flops   104 x    32 x    50          51836928000       0.0%    100.0%      0.0%     
 flops   390 x    32 x    50          52341120000       0.0%    100.0%      0.0%     
 flops    64 x    32 x    62          52740751360       0.0%    100.0%      0.0%     
 flops   313 x    32 x    57          55869448320       0.0%    100.0%      0.0%     
 flops    14 x    32 x     5          55883520000       0.0%    100.0%      0.0%     
 flops     5 x    32 x    14          55883520000       0.0%    100.0%      0.0%     
 flops   421 x    32 x    50          56501568000       0.0%    100.0%      0.0%     
 flops    14 x    13 x    32          58479482880       0.0%    100.0%      0.0%     
 flops    13 x    14 x    32          58479482880       0.0%    100.0%      0.0%     
 flops   336 x    32 x    57          59974871040       0.0%    100.0%      0.0%     
 flops    96 x    32 x    57          63639797760       0.0%    100.0%      0.0%     
 flops    64 x    32 x    50          63799296000       0.0%    100.0%      0.0%     
 flops    14 x    32 x    14          64012032000       0.0%    100.0%      0.0%     
 flops   104 x    32 x    57          68943114240       0.0%    100.0%      0.0%     
 flops   390 x    32 x    57          69613689600       0.0%    100.0%      0.0%     
 flops    96 x    32 x    32          70248038400       0.0%    100.0%      0.0%     
 flops   421 x    32 x    57          75147085440       0.0%    100.0%      0.0%     
 flops   104 x    32 x    32          76102041600       0.0%    100.0%      0.0%     
 flops    64 x    32 x    57          84853063680       0.0%    100.0%      0.0%     
 flops    64 x    32 x    32          93664051200       0.0%    100.0%      0.0%     
 flops   313 x    32 x    32         206089216000       0.0%    100.0%      0.0%     
 flops     5 x    32 x    13         219098880000       0.0%    100.0%      0.0%     
 flops    13 x    32 x     5         219098880000       0.0%    100.0%      0.0%     
 flops   336 x    32 x    32         221233152000       0.0%    100.0%      0.0%     
 flops    13 x    13 x    32         232293501440       0.0%    100.0%      0.0%     
 flops    14 x    32 x    13         250967808000       0.0%    100.0%      0.0%     
 flops    13 x    32 x    14         250967808000       0.0%    100.0%      0.0%     
 flops   390 x    32 x    32         256788480000       0.0%    100.0%      0.0%     
 flops   421 x    32 x    32         277199872000       0.0%    100.0%      0.0%     
 flops    13 x    32 x    13         983953152000       0.0%    100.0%      0.0%     
 flops inhomo. stacks                833595029280     100.0%      0.0%      0.0%
 flops total                         5.979667E+12      13.9%     86.1%      0.0%
 flops max/rank                    280.679355E+09      15.1%     84.9%      0.0%
 matmuls inhomo. stacks                   1304820     100.0%      0.0%      0.0%
 matmuls total                          414490626       0.3%     99.7%      0.0%
 number of processed stacks              26808804       4.9%     95.1%      0.0%
 average stack size                                     1.0      16.2       0.0
 marketing flops                     6.308826E+12
 -------------------------------------------------------------------------------
 # multiplications                          12472
 max memory usage/rank             538.411008E+06
 # max total images/rank                       13
 # max 3D layers                                1
 # MPI messages exchanged                24644672
 MPI messages size (bytes):
  total size                         1.705109E+12
  min size                           0.000000E+00
  max size                         381.680000E+03
  average size                      69.187734E+03
 MPI breakdown and total messages size (bytes):
             size <=      128            11730040                        0
       128 < size <=     8192              967492               6369176576
      8192 < size <=    32768             1635690              22820620800
     32768 < size <=   131072             5360750             332957216000
    131072 < size <=  4194304             4950700            1342183840000
   4194304 < size <= 16777216                   0                        0
  16777216 < size                               0                        0
 -------------------------------------------------------------------------------

 *** WARNING in dbcsr_mm.F:301 :: Using a non-square number of MPI ranks ***
 *** might lead to poor performance. Used ranks: 52 Suggested: 49 100    ***

 -------------------------------------------------------------------------------
 -                                                                             -
 -                      DBCSR MESSAGE PASSING PERFORMANCE                      -
 -                                                                             -
 -------------------------------------------------------------------------------
 ROUTINE             CALLS      AVE VOLUME [Bytes]
 MP_Bcast              113                     12.
 MP_Allreduce        67241                      9.
 MP_Alltoall         43109                  23871.
 MP_ISend          1124550                  31910.
 MP_IRecv          1086630                  31709.
 -------------------------------------------------------------------------------

 -------------------------------------------------------------------------------
 -                                                                             -
 -                                DBM STATISTICS                               -
 -                                                                             -
 -------------------------------------------------------------------------------
    M  x    N  x    K                                          COUNT     PERCENT
 -------------------------------------------------------------------------------

 -------------------------------------------------------------------------------
 -                                                                             -
 -                                GRID STATISTICS                              -
 -                                                                             -
 -------------------------------------------------------------------------------
 LP    KERNEL             BACKEND                              COUNT     PERCENT
 3     collocate general  CPU                               74095013      22.37%
 4     collocate general  CPU                               71150428      21.48%
 3     integrate general  CPU                               70320983      21.23%
 4     integrate general  CPU                               67271511      20.31%
 2     collocate general  CPU                               20217904       6.10%
 2     integrate general  CPU                               19115536       5.77%
 6     integrate general  CPU                                3933252       1.19%
 7     integrate general  CPU                                3776842       1.14%
 5     integrate general  CPU                                1073341       0.32%
 0     collocate general  CPU                                 272688       0.08%
 -------------------------------------------------------------------------------

 MEMORY| Estimated peak process memory [MiB]                                 514

 -------------------------------------------------------------------------------
 -                                                                             -
 -                         MESSAGE PASSING PERFORMANCE                         -
 -                                                                             -
 -------------------------------------------------------------------------------

 ROUTINE             CALLS      AVE VOLUME [Bytes]
 MP_Group                4
 MP_Bcast             4813                 158874.
 MP_Allreduce        16662                    374.
 MP_Sync                87
 MP_Alltoall         16549                2658600.
 MP_SendRecv        114189                  64816.
 MP_ISendRecv       106488                  68832.
 MP_Wait            206312
 MP_comm_split          46
 MP_ISend            91016                 237201.
 MP_IRecv            91016                 237200.
 -------------------------------------------------------------------------------


 -------------------------------------------------------------------------------
 -                                                                             -
 -                           R E F E R E N C E S                               -
 -                                                                             -
 -------------------------------------------------------------------------------
 
 CP2K version 2024.3, the CP2K developers group (2024).
 CP2K is freely available from https://www.cp2k.org/ .
 
 T. D. Kuehne, M. Iannuzzi, M. Del Ben, V. V. Rybkin, P. Seewald, F. Stein, T. 
 Laino, R. Z. Khaliullin, O. Schuett, F. Schiffmann, D. Golze, J. Wilhelm, S. 
 Chulkov, M. H. Bani-Hashemian, V. Weber, U. Borstnik, M. Taillefumier, A. S. 
 Jakobovits, A. Lazzaro, H. Pabst, T. Mueller, R. Schade, M. Guidon, S. 
 Andermatt, N. Holmberg, G. K. Schenter, A. Hehn, A. Bussy, F. Belleflamme, G. 
 Tabacchi, A. Gloess, M. Lass, I. Bethune, C. J. Mundy, C. Plessl, M. Watkins, 
 J. VandeVondele, M. Krack, J. Hutter.
 J. Chem. Phys. 152, 194103 (2020).
 CP2K: An electronic structure and molecular dynamics software package - 
 Quickstep: Efficient and accurate electronic structure calculations.
 https://doi.org/10.1063/5.0007045

 L. Goerigk, A. Hansen, C. Bauer, S. Ehrlich, A. Najibi, S. Grimme.
 Phys. Chem. Chem. Phys. 19, 32184-32215 (2017).
 A look at the density functional theory zoo with the advanced GMTKN55 database 
 for general main group thermochemistry, kinetics and noncovalent interactions.
 https://doi.org/10.1039/C7CP04913G

 O. Schuett, P. Messmer, J. Hutter, J. VandeVondele.
 Electronic Structure Calculations on Graphics Processing Units, 173-190 (2016).
 GPU-Accelerated Sparse Matrix-Matrix Multiplication for Linear Scaling Density 
 Functional Theory.
 https://doi.org/10.1002/9781118670712.ch8

 A. Heinecke, G. Henry, M. Hutchinson, H. Pabst.
 Proceedings of Intl. Supercomputing Conference, 981-991 (2016).
 LIBXSMM: Accelerating Small Matrix Multiplications by Runtime Code Generation.
 https://doi.org/10.1109/SC.2016.83

 J. Hutter, M. Iannuzzi, F. Schiffmann, J. VandeVondele.
 WIREs Comput Mol Sci. 4, 15-25 (2014).
 CP2K: atomistic simulations of condensed matter systems.
 https://doi.org/10.1002/wcms.1159

 U. Borstnik, J. VandeVondele, V. Weber, J. Hutter.
 Parallel Comput. 40, 47-58 (2014).
 Sparse matrix multiplication: The distributed block-compressed sparse row 
 library.
 https://doi.org/10.1016/j.parco.2014.03.012

 A. Marek, V. Blum, R. Johanni, V. Havu, B. Lang, T. Auckenthaler, A. Heinecke, 
 H. Bungartz, H. Lederer.
 J. Phys. Condens. Matter 26, 213201 (2014).
 The ELPA library: scalable parallel eigenvalue solutions for electronic 
 structure theory and computational science.
 https://doi.org/10.1088/0953-8984/26/21/213201

 S. Grimme, S. Ehrlich, L. Goerigk.
 J. Comput. Chem. 32, 1456 (2011).
 Effect of the damping function in dispersion corrected density functional 
 theory.
 https://doi.org/10.1002/jcc.21759

 S. Grimme, J. Antony, S. Ehrlich, H. Krieg.
 J. Chem. Phys. 132, 154104 (2010).
 A consistent and accurate ab initio parametrization of density functional 
 dispersion correction (DFT-D) for the 94 elements H-Pu.
 https://doi.org/10.1063/1.3382344

 J. P. Perdew, A. Ruzsinszky, G. I. Csonka, O. A. Vydrov, G. E. Scuseria, L. A. 
 Constantin, X. Zhou, K. Burke.
 Phys. Rev. Lett. 100, 136406-136409 (2008).
 Restoring the Density-Gradient Expansion for Exchange in Solids and Surfaces.
 https://doi.org/10.1103/PhysRevLett.100.136406

 J. VandeVondele, J. Hutter.
 J. Chem. Phys. 127, 114105 (2007).
 Gaussian basis sets for accurate calculations on molecular systems in gas and 
 condensed phases.
 https://doi.org/10.1063/1.2770708

 T. D. Kühne, M. Krack, F. R. Mohamed, M. Parrinello.
 Phys. Rev. Lett. 98, 066401 (2007).
 Efficient and accurate Car-Parrinello-like approach to Born-Oppenheimer 
 molecular dynamics.
 https://doi.org/10.1103/PhysRevLett.98.066401

 J. VandeVondele, M. Krack, F. Mohamed, M. Parrinello, T. Chassaing, J. Hutter.
 Comput. Phys. Commun. 167, 103-128 (2005).
 QUICKSTEP: Fast and accurate density functional calculations using a mixed 
 Gaussian and plane waves approach.
 https://doi.org/10.1016/j.cpc.2004.12.014

 M. Krack.
 Theor. Chem. Acc. 114, 145-152 (2005).
 Pseudopotentials for H to Kr optimized for gradient-corrected 
 exchange-correlation functionals.
 https://doi.org/10.1007/s00214-005-0655-y

 M. Frigo, S. G. Johnson.
 Proc. IEEE 93, 216-231 (2005).
 The design and implementation of FFTW3.
 https://doi.org/10.1109/JPROC.2004.840301

 J. Kolafa.
 J. Comput. Chem. 25, 335-342 (2004).
 Time-reversible always stable predictor-corrector method for molecular dynamics 
 of polarizable molecules.
 https://doi.org/10.1002/jcc.10385

 J. VandeVondele, J. Hutter.
 J. Chem. Phys. 118, 4365-4369 (2003).
 An efficient orbital transformation method for electronic structure 
 calculations.
 https://doi.org/10.1063/1.1543154

 C. Hartwigsen, S. Goedecker, J. Hutter.
 Phys. Rev. B 58, 3641-3662 (1998).
 Relativistic separable dual-space Gaussian pseudopotentials from H to Rn.
 https://doi.org/10.1103/PhysRevB.58.3641

 G. Lippert, J. Hutter, M. Parrinello.
 Mol. Phys. 92, 477-487 (1997).
 A hybrid Gaussian and plane wave density functional scheme.
 https://doi.org/10.1080/002689797170220

 S. Goedecker, M. Teter, J. Hutter.
 Phys. Rev. B 54, 1703-1710 (1996).
 Separable dual-space Gaussian pseudopotentials.
 https://doi.org/10.1103/PhysRevB.54.1703

 J. P. Perdew, K. Burke, M. Ernzerhof.
 Phys. Rev. Lett. 77, 3865-3868 (1996).
 Generalized gradient approximation made simple.
 https://doi.org/10.1103/PhysRevLett.77.3865


 -------------------------------------------------------------------------------
 -                                                                             -
 -                                T I M I N G                                  -
 -                                                                             -
 -------------------------------------------------------------------------------
 SUBROUTINE                       CALLS  ASD         SELF TIME        TOTAL TIME
                                MAXIMUM       AVERAGE  MAXIMUM  AVERAGE  MAXIMUM
 CP2K                                 1  1.0    0.013    0.016 1421.650 1421.651
 cp_geo_opt                           1  2.0    0.000    0.000 1421.299 1421.300
 geoopt_bfgs                          1  3.0    0.014    0.018 1421.299 1421.300
 cp_eval_at                          38  4.0    0.007    0.024 1419.662 1419.677
 qs_forces                           37  5.0    0.009    0.009 1397.504 1397.506
 qs_energies                         38  6.0    0.003    0.004 1320.506 1320.533
 scf_env_do_scf                      38  7.0    0.002    0.004 1272.043 1272.048
 scf_env_do_scf_inner_loop          659  8.0    0.017    0.081 1232.699 1232.873
 rebuild_ks_matrix                  696  9.8    0.003    0.004  748.751  749.364
 qs_ks_build_kohn_sham_matrix       696 10.8    0.131    0.139  748.748  749.360
 qs_ks_update_qs_env                699  9.0    0.006    0.008  706.127  736.416
 qs_rho_update_rho_low              697  9.0    0.004    0.004  532.741  563.142
 calculate_rho_elec                 697 10.0    0.362    0.428  532.738  563.138
 sum_up_and_integrate               696 11.8    0.018    0.030  522.576  522.939
 integrate_v_rspace                 696 12.8    0.033    0.043  522.043  522.595
 grid_integrate_task_list           696 13.8  414.188  425.407  414.188  425.407
 grid_collocate_task_list           697 11.0  403.582  417.050  403.582  417.050
 fft_wrap_pw1pw2                  11875 14.2    0.500    0.583  207.694  214.967
 fft_wrap_pw1pw2_250               7696 15.6    7.367    7.604  198.218  204.980
 qs_vxc_create                      696 11.8    0.037    0.046  183.619  186.080
 xc_vxc_pw_create                   696 12.8    3.101    3.719  183.582  186.050
 fft3d_ps                         11875 16.2   57.690   65.078  174.096  183.068
 xc_pw_derive                      4176 14.8    0.113    0.154   94.884  146.542
 xc_pw_divergence                   696 13.8    0.058    0.072  120.828  126.435
 mp_alltoall_z22v                 11875 18.2   98.888  125.611   98.888  125.611
 density_rs2pw                      697 11.0    0.069    0.088   97.063  114.432
 x_to_yz                           4873 17.4    8.748   10.439   79.688   90.902
 transfer_rs2pw                    2826 12.0    0.053    0.072   68.744   85.235
 yz_to_x                           4216 17.4    6.025    7.640   33.465   83.564
 potential_pw2rs                    696 13.8    0.086    0.100   81.757   82.037
 mp_waitany                       91016 15.3   60.572   78.078   60.572   78.078
 mp_sum_d                         15065 14.0   70.079   77.780   70.079   77.780
 transfer_rs2pw_250                 735 12.9   11.327   14.176   58.808   75.263
 qs_ks_update_qs_env_forces          37  6.0    0.000    0.000   72.955   73.366
 transfer_pw2rs                    2821 14.8    0.051    0.062   66.955   67.046
 dbcsr_multiply_generic           12472 13.9    0.687    0.780   65.168   66.717
 dbcsr_dot_sd                      7805 13.5    0.344    0.537   32.406   63.180
 evaluate_core_matrix_traces        696  9.8    0.003    0.005   30.325   60.333
 calculate_ptrace_kp               1392 10.8    0.003    0.006   30.322   60.331
 xc_rho_set_and_dset_create         696 13.8    1.545    1.927   57.093   58.397
 qs_scf_new_mos                     659  9.0    0.004    0.006   57.181   57.601
 qs_scf_loop_do_ot                  659 10.0    0.004    0.006   57.178   57.598
 transfer_pw2rs_250                 733 15.6   26.628   27.464   53.431   54.347
 ot_scf_mini                        659 11.0    0.020    0.022   53.695   54.137
 mp_alltoall_d11v                  9647 15.0   26.660   44.293   26.660   44.293
 rs_gather_matrices                 696 13.8    0.144    0.252   26.012   43.372
 init_scf_loop                       40  8.0    0.001    0.001   38.920   38.923
 ot_mini                            659 12.0    0.005    0.005   34.967   35.407
 multiply_cannon                  12472 14.9    1.436    1.571   33.118   35.360
 mp_waitall_1                   1711712 17.9   21.515   31.206   21.515   31.206
 init_scf_run                        38  7.0    0.001    0.002   31.113   31.117
 scf_env_initial_rho_setup           38  8.0    0.000    0.001   31.112   31.116
 wfi_extrapolate                     38  9.0    0.004    0.005   30.332   30.332
 multiply_cannon_loop             12472 15.9    1.801    2.283   26.795   28.812
 -------------------------------------------------------------------------------

 The number of warnings for this run is : 1
 
 -------------------------------------------------------------------------------
  **** **** ******  **  PROGRAM ENDED AT                 2025-01-16 05:18:46.208
 ***** ** ***  *** **   PROGRAM RAN ON                               ubuntu-GPU2
 **    ****   ******    PROGRAM RAN BY                                       zkm
 ***** **    ** ** **   PROGRAM PROCESS ID                               3479325
  **** **  *******  **  PROGRAM STOPPED IN /home/zkm/CP2K/Generate_dataset/Jenni
                                           te/Elastic/elastic_cp2k/example/epsil
                                           onxx/neg
