     138
 i =        1, E =     -1761.2462168380
 Ca        -0.7047525645        1.3907688204        3.6674088199
 Ca         2.5154156790        4.5767592631        3.2879548381
 Ca        -1.8316183281        4.8494837385        3.9376771132
 Ca         3.4395198823        0.9410929694        3.5193480288
 Si         5.9415977657        5.8086082426        1.9678736984
 Si         6.6983193730        0.6470089467        3.8033819315
 Si         5.5231446183        3.4879823683        3.9330433372
  O         4.9490274224       13.0304019249        2.5954807943
  O         0.3537409520        5.5609365158        3.5379185614
  O         5.4819677141       -0.2990368026        4.3180737097
  O         7.8416638411        0.8579748027        4.9356072346
  O         7.4094477130        0.1931725432        2.3920238117
  O         5.2574421749        4.4522619979        2.6185240455
  O         6.0496968370        2.0675358227        3.2971201177
  O         5.9848522380        5.6792879976        0.3629063785
  O         4.0140406799        3.1803855066        4.4484213660
  O         6.6186849735        4.0971416988        4.9558089888
  O         1.4780293866        2.3195797953        3.3143144403
  O        -1.3124478277        3.1995222104        2.3939114128
  O         4.0048787027        0.8418289114        1.2186254152
  O         4.4798909915       -0.9699641391        9.3172243252
  O         8.2731161320       -1.7230714096        9.4672070235
  O         6.1200675958        1.0114016957        9.3920227157
 Ca         7.6562783599        2.5912685914        6.5903298311
 Ca         4.4504710014       -0.6009280501        6.9407439965
 Ca         8.7255534935       -0.8244492665        6.4381811416
 Ca         3.4866151229        2.9834274844        6.6186106029
 Si         1.0596077116       -1.8077995691        8.3332951552
 Si         0.3037636494        3.4248168185        6.3994518833
 Si         1.4120770754        0.5182733234        6.3507320105
  O        -2.8466429907        4.6492743679        7.6926190593
  O         6.5530938477       -1.5789703756        6.6277789663
  O         1.5054834640        4.3306248839        5.7860577416
  O        -0.9024533118        3.1497823048        5.3664001291
  O        -0.2718555169        3.9829313610        7.8319161287
  O         1.5566115499       -0.3353682387        7.7590053907
  O         1.0192583961        2.0274689559        6.9250602842
  O         1.0120877388       -1.7920803314        9.9409780906
  O         2.9233767824        0.6997679885        5.7859347109
  O         0.2725282607       -0.0775223246        5.3712959355
  O         5.4862173984        1.6314844019        6.9081951472
  O        -1.7093788134        1.0113106013        7.9095658477
  O         3.4927148212        3.7965784248        8.8210119589
  O         2.5421367576        5.2094913463        1.0585142093
  O        -1.3260516021        5.5697434370        0.6953158651
  O         0.9883458546        3.0530504666        0.7119305301
 Ca         9.2043298415        3.3331562722        0.0346063557
 Ca        -3.1783246526        8.2643507309        3.6689962908
 Ca         0.0459769362       11.4472533521        3.2918362922
 Ca        -4.2949998041       11.7211444375        3.9341072854
 Ca         0.9738832926        7.8111035895        3.5125067841
 Si         3.4675867428       12.6780767984        1.9608512613
 Si         4.2343360697        7.5174458916        3.8000136844
 Si         3.0500610534       10.3580720525        3.9354994939
  O         7.3946710334        6.1640425683        2.5982016198
  O        -2.0932948907       12.4336399177        3.5378199478
  O         3.0109511135        6.5808652723        4.3198002600
  O         5.3798587229        7.7247134005        4.9333599878
  O         4.9538516891        7.0626816613        2.3930771662
  O         2.7832007002       11.3277298129        2.6238298737
  O         3.5659384708        8.9327219456        3.3004951390
  O         3.5279435169       12.5452278264        0.3571016046
  O         1.5376479438       10.0536738085        4.4454412527
  O         4.1500204364       10.9670804757        4.9548607327
  O        -0.9781825814        9.1909613006        3.3141964027
  O        -3.7740413578       10.0648210781        2.3937101784
  O         1.5391598778        7.7118009313        1.2118521602
  O         1.9840104355        5.8748721239        9.2617394598
  O         5.8153864433        5.1466054834        9.4642389794
  O         3.6265363726        7.8445585166        9.4022333456
 Ca         5.1805411526        9.4638234990        6.5937069043
 Ca         1.9951254155        6.2728311329        6.9065652041
 Ca         6.2675918678        6.0454887414        6.4356861050
 Ca         1.0220404557        9.8541595682        6.6162061699
 Si        -1.4111621656        5.0685533671        8.3282729181
 Si        -2.1625872126       10.2899237064        6.3916303125
 Si        -1.0586275346        7.3874192084        6.3565420365
  O        -5.3020792958       11.5210659273        7.6971369949
  O         4.1054729435        5.2899618694        6.6243519000
  O        -0.9597418338       11.2045315499        5.7938927474
  O        -3.3811373579       10.0186870155        5.3713763422
  O        -2.7222052153       10.8518451298        7.8302468038
  O        -0.8994477447        6.5386424042        7.7633382981
  O        -1.4369163177        8.9020990805        6.9254989422
  O        -1.4438052604        5.0785522076        9.9370892670
  O         0.4461611696        7.5726457507        5.7807151185
  O        -2.1855690471        6.7892959217        5.3647815746
  O         3.0038162390        8.5021600300        6.9100594875
  O        -4.1873345605        7.8805700731        7.9108807733
  O         1.0222139069       10.6696695065        8.8254626946
  O         0.0787352674       12.0765045810        1.0578191323
  O        -3.8078627440       12.4377988311        0.6810945402
  O        -1.4654816843        9.9246816666        0.7115630705
 Ca         6.7289289688       10.2037479197        0.0396285385
  H         3.1666475912        0.8669372125        0.5914258375
  H         4.6595357753        1.3560095208        0.6614739925
  H         5.1600519541       -0.2356994136        9.5247584453
  H         4.9970593804       -1.8440214430        9.2873719340
  H         8.1075609648       -2.5853404700        9.9866864635
  H         9.0643442432       -1.9699359149        8.8629934340
  H         5.6658569861        1.8283597566        9.9106546163
  H         6.0080542719        1.2247284179        8.4103528253
  H         3.8889867310        3.2822677276        9.6391427236
  H         4.2413691327        4.4462631114        8.6851692157
  H         1.9439491227        4.5248206278        0.6460082970
  H         2.1143873099        6.1150678970        0.9703273866
  H        -2.0339912931        5.8414328383        1.3571738087
  H        -1.0201790318        6.4531659605        0.3046219364
  H         1.0525348942        2.8017106918        1.6795214003
  H         1.4117671069        2.1986055210        0.2665359677
  H         0.6993136964        7.7362004329        0.5857831000
  H         2.1859057850        8.2225052720        0.6458566675
  H         2.6589970355        6.6068969353        9.4928075340
  H         2.5120860240        5.0077110303        9.2434195287
  H         5.6401582671        4.2845811775        9.9880359789
  H         6.6045444547        4.8941675973        8.8686454636
  H         3.1886594248        8.6728418455        9.9190014743
  H         3.5375235730        8.0775794372        8.4234640237
  H         1.4313756403       10.1533874231        9.6388287194
  H         1.7743771856       11.3123649363        8.6770557671
  H        -0.5248709713       11.3952145632        0.6475811904
  H        -0.3521736764       12.9823777626        0.9742514480
  H        -4.5027968636       12.7089885268        1.3602839369
  H        -3.4869397009       13.3185595298        0.3006055205
  H        -1.4178533130        9.6708593550        1.6799449432
  H        -1.0574743105        9.0638428001        0.2639010480
  H         0.5624494662        5.3508921169        4.4817909410
  H         1.3444511391        2.7075478582        4.2080553442
  H        -0.4515615563        3.6810951358        2.4005400475
  H         6.3970068909       -1.3342806251        5.6808624350
  H         5.6964468027        1.2379307523        6.0297444205
  H        -0.7929063950        1.3564764430        7.9443893198
  H        -1.9086213147       12.2233604016        4.4869325104
  H        -1.1260909299        9.5742870333        4.2078420220
  H        -2.9189796129       10.5548397065        2.3987857177
  H         3.9407897343        5.5195681490        5.6760154371
  H         3.2306030566        8.1249182959        6.0281615754
  H        -3.2693490475        8.2237838177        7.9492069529
     138
 i =        2, E =     -1761.2493472191
 Ca        -0.7008806067        1.3771661644        3.6666044168
 Ca         2.5187522347        4.5771063540        3.2874135906
 Ca        -1.8236956325        4.8513262710        3.9422501719
 Ca         3.4391295328        0.9427940844        3.5200943648
 Si         5.9416391306        5.8084909707        1.9678071725
 Si         6.6964145694        0.6486376747        3.8020605498
 Si         5.5202694293        3.4901904919        3.9295684236
  O         4.9412558562       13.0332988896        2.5924900363
  O         0.3580958242        5.5516628344        3.5364406757
  O         5.4734854139       -0.2902857461        4.3125752016
  O         7.8299439913        0.8510906991        4.9454629196
  O         7.3914653729        0.1847695958        2.3848090406
  O         5.2528013745        4.4558626491        2.6166164958
  O         6.0373933418        2.0645976973        3.2985904131
  O         5.9825924066        5.6764856602        0.3638869489
  O         4.0123697669        3.1806189809        4.4464789006
  O         6.6094250654        4.0944385217        4.9607752260
  O         1.4794366869        2.3204823345        3.3130562301
  O        -1.3177541944        3.1898186709        2.3924386551
  O         3.9974801167        0.8411535047        1.2197752756
  O         4.4728551441       -0.9689458358        9.3196580754
  O         8.2628784150       -1.7254795497        9.4649736350
  O         6.1127775394        1.0078873671        9.3914644734
 Ca         7.6475187763        2.5964768782        6.5919731339
 Ca         4.4444031572       -0.6015953079        6.9424803337
 Ca         8.7191946251       -0.8186284648        6.4383962556
 Ca         3.4864378483        2.9817430429        6.6173637054
 Si         1.0523182776       -1.8034558175        8.3338788664
 Si         0.3000562853        3.4200860045        6.4019800107
 Si         1.4137364520        0.5142378870        6.3561069387
  O        -2.8370000776        4.6471631766        7.6904529139
  O         6.5461302893       -1.5771551136        6.6273622073
  O         1.5014880786        4.3262988291        5.7922006082
  O        -0.8955043352        3.1529333099        5.3553834918
  O        -0.2594040128        3.9901315634        7.8356021500
  O         1.5652081177       -0.3364485148        7.7649613309
  O         1.0356618716        2.0309508513        6.9188669207
  O         1.0135773367       -1.7936368086        9.9406534616
  O         2.9233593943        0.7027673717        5.7893767026
  O         0.2863036041       -0.0763194985        5.3615995577
  O         5.4701890276        1.6291275808        6.9066580233
  O        -1.7021020206        1.0145572238        7.9114195866
  O         3.4982900929        3.7960662323        8.8176070089
  O         2.5366791127        5.2110317339        1.0615613158
  O        -1.3166680205        5.5723078802        0.6969721681
  O         0.9945159371        3.0504241027        0.7148938939
 Ca         9.2158534987        3.3344639555        0.0326557801
 Ca        -3.1673500049        8.2479396128        3.6702620227
 Ca         0.0561735076       11.4450744580        3.2903736832
 Ca        -4.2867304410       11.7223591520        3.9404668041
 Ca         0.9750755450        7.8133446691        3.5147486355
 Si         3.4751789382       12.6775331874        1.9624098579
 Si         4.2356439007        7.5224181588        3.7960593345
 Si         3.0491742192       10.3641034988        3.9282865570
  O         7.3933300805        6.1681497519        2.5954642913
  O        -2.0942774895       12.4257687168        3.5383291752
  O         3.0142158888        6.5844482027        4.3143793997
  O         5.3671696945        7.7236778277        4.9443082765
  O         4.9459242730        7.0570313534        2.3871086922
  O         2.7738733106       11.3355717216        2.6197735998
  O         3.5497867555        8.9307398317        3.2992825704
  O         3.5310820827       12.5396099067        0.3602264749
  O         1.5432592447       10.0551480043        4.4501897165
  O         4.1409963310       10.9652212833        4.9598547396
  O        -0.9886817596        9.1928612329        3.3110724553
  O        -3.7789205395       10.0615504933        2.3926125708
  O         1.5381187632        7.7083034590        1.2117254018
  O         1.9814043889        5.8713575244        9.2619316465
  O         5.8101567056        5.1461397789        9.4648719639
  O         3.6235815923        7.8394129559        9.4000201252
 Ca         5.1729731018        9.4707006171        6.5968371058
 Ca         1.9887582620        6.2759071284        6.9092025864
 Ca         6.2637791495        6.0498697715        6.4318867775
 Ca         1.0195230415        9.8500263848        6.6149722738
 Si        -1.4041671027        5.0695007571        8.3282092838
 Si        -2.1559131188       10.2907148520        6.3995137537
 Si        -1.0512929789        7.3830692749        6.3569288344
  O        -5.2886186968       11.5143360140        7.6942904045
  O         4.1025037422        5.2928059967        6.6229672463
  O        -0.9549622174       11.1987833775        5.7916073093
  O        -3.3614850675       10.0235317574        5.3644258155
  O        -2.7105822229       10.8609396157        7.8375138843
  O        -0.8904314227        6.5388653064        7.7661868268
  O        -1.4226790322        8.9018280631        6.9177577549
  O        -1.4388118289        5.0799835662        9.9360037887
  O         0.4505875759        7.5741471244        5.7795021559
  O        -2.1799552837        6.7940702201        5.3647926675
  O         3.0049368786        8.5003862055        6.9103054074
  O        -4.1722028878        7.8799798660        7.9121382984
  O         1.0266917023       10.6684622335        8.8229034079
  O         0.0816950653       12.0797549839        1.0588110746
  O        -3.8060940202       12.4369702329        0.6755355375
  O        -1.4715196240        9.9186100687        0.7129358051
 Ca         6.7427146967       10.2040358683        0.0347387158
  H         3.1613879277        0.8693819927        0.5914105411
  H         4.6538640098        1.3544112383        0.6624708874
  H         5.1527853983       -0.2322539939        9.5226861612
  H         4.9896698554       -1.8445156451        9.2867101996
  H         8.0974528130       -2.5829025441        9.9914218789
  H         9.0526004899       -1.9654646466        8.8527835563
  H         5.6622897521        1.8291630005        9.9070468629
  H         6.0038386000        1.2257351560        8.4110539116
  H         3.8912680735        3.2832077479        9.6382403226
  H         4.2454502344        4.4487294478        8.6901714905
  H         1.9410787348        4.5260619812        0.6453092242
  H         2.1086442153        6.1152611395        0.9689669566
  H        -2.0245550065        5.8365027927        1.3617809902
  H        -1.0141461835        6.4514631320        0.2965575788
  H         1.0563070254        2.8020935370        1.6820174056
  H         1.4153954754        2.1978991229        0.2616292131
  H         0.6971781043        7.7367004351        0.5873208439
  H         2.1833468448        8.2223902992        0.6463972509
  H         2.6509743675        6.6108064833        9.4898697855
  H         2.5080338166        5.0032713343        9.2428849151
  H         5.6370809194        4.2866249037        9.9935555831
  H         6.5966990440        4.8988790127        8.8613193574
  H         3.1843108805        8.6700109318        9.9134855292
  H         3.5309544501        8.0766186260        8.4241717588
  H         1.4365183480       10.1541209991        9.6380863600
  H         1.7806567885       11.3104457685        8.6814020769
  H        -0.5210084358       11.3949670406        0.6493262847
  H        -0.3498973444       12.9844231857        0.9734875260
  H        -4.4932975376       12.7064525003        1.3653142101
  H        -3.4803540787       13.3155199307        0.2955462896
  H        -1.4094979406        9.6707205168        1.6798837420
  H        -1.0481265243        9.0661268991        0.2628602469
  H         0.5679836569        5.3548688844        4.4831546655
  H         1.3463678590        2.7070128882        4.2076611197
  H        -0.4661543954        3.6855037620        2.4022945736
  H         6.3902125828       -1.3386290223        5.6788574249
  H         5.6934378038        1.2381973601        6.0296912112
  H        -0.7838931367        1.3566789523        7.9463252188
  H        -1.8978679763       12.2289200266        4.4876338488
  H        -1.1202418995        9.5729288325        4.2080308285
  H        -2.9289155087       10.5589732192        2.3998789650
  H         3.9370823958        5.5176300395        5.6737158191
  H         3.2247530269        8.1238214638        6.0268386034
  H        -3.2564633051        8.2266606463        7.9522002145
     138
 i =        3, E =     -1761.2507677664
 Ca        -0.6999680116        1.3703640411        3.6700147018
 Ca         2.5245606408        4.5782898259        3.2858743519
 Ca        -1.8238266218        4.8479186023        3.9496765300
 Ca         3.4443553753        0.9443257203        3.5214873425
 Si         5.9408428493        5.8081602936        1.9685054390
 Si         6.6893479950        0.6487103490        3.7968427900
 Si         5.5167071667        3.4924905286        3.9308626733
  O         4.9335590160       13.0286202183        2.5916684963
  O         0.3609952956        5.5439764574        3.5374782521
  O         5.4603777923       -0.2796261712        4.3125923074
  O         7.8236101436        0.8476039208        4.9411154850
  O         7.3859324160        0.1846331148        2.3794744353
  O         5.2496735034        4.4587704307        2.6183697218
  O         6.0298470237        2.0662967645        3.2995114421
  O         5.9853760149        5.6768758276        0.3650038088
  O         4.0071533321        3.1847712640        4.4445522991
  O         6.6043623383        4.0956417004        4.9641318762
  O         1.4767013864        2.3184864971        3.3113839583
  O        -1.3228004557        3.1868714615        2.3906449724
  O         3.9888235609        0.8403798489        1.2202676082
  O         4.4650157515       -0.9670430814        9.3191907345
  O         8.2548463070       -1.7212030688        9.4566707316
  O         6.1055472257        1.0032191185        9.3908979603
 Ca         7.6381987049        2.6029632064        6.5924972834
 Ca         4.4353052942       -0.6044613884        6.9473778372
 Ca         8.7147056427       -0.8119620547        6.4319652515
 Ca         3.4802303829        2.9812419676        6.6145642391
 Si         1.0518821455       -1.8046595660        8.3300808390
 Si         0.3050981804        3.4201782394        6.4000974103
 Si         1.4221022867        0.5157282703        6.3586526892
  O        -2.8282679273        4.6490810831        7.6884847943
  O         6.5418764560       -1.5703341985        6.6264444874
  O         1.5024505847        4.3293573636        5.7873851009
  O        -0.9000507060        3.1491605990        5.3662226341
  O        -0.2461462151        3.9906447750        7.8362454881
  O         1.5649170657       -0.3364231784        7.7669367813
  O         1.0332636475        2.0292978600        6.9218226114
  O         1.0119717500       -1.7937273519        9.9365105989
  O         2.9305396609        0.6983397819        5.7874963775
  O         0.3023334333       -0.0798991991        5.3615260471
  O         5.4569370334        1.6283950585        6.9074852024
  O        -1.6958079286        1.0172459666        7.9089080587
  O         3.5066483395        3.7961453440        8.8161842104
  O         2.5328931417        5.2128004893        1.0600067604
  O        -1.3106237562        5.5701366900        0.6982257417
  O         0.9991817712        3.0504952360        0.7166987097
 Ca         9.2154918913        3.3384512254        0.0299322468
 Ca        -3.1615070757        8.2400029865        3.6756246174
 Ca         0.0653681064       11.4491531459        3.2885970725
 Ca        -4.2828237750       11.7177444794        3.9515511814
 Ca         0.9829943845        7.8154249297        3.5144027927
 Si         3.4802872950       12.6738622151        1.9645137521
 Si         4.2287774362        7.5241539593        3.7908878052
 Si         3.0450177251       10.3661757314        3.9267980302
  O         7.3931836185        6.1660231957        2.5939275809
  O        -2.1007506303       12.4197951989        3.5392837416
  O         3.0113458180        6.5837677672        4.3114486535
  O         5.3530656748        7.7281578261        4.9445665585
  O         4.9430917239        7.0559750354        2.3842106235
  O         2.7644955320       11.3384786767        2.6203174699
  O         3.5371807851        8.9306810461        3.2962992364
  O         3.5345012859       12.5398919601        0.3620842457
  O         1.5398841232       10.0578002653        4.4489337717
  O         4.1312433109       10.9684075506        4.9628725309
  O        -0.9927031387        9.1906411192        3.3104901668
  O        -3.7867604294       10.0600780213        2.3905016155
  O         1.5366393400        7.7095060579        1.2138396424
  O         1.9764139271        5.8693888813        9.2613391035
  O         5.8037942695        5.1480058249        9.4594126777
  O         3.6217108130        7.8353903278        9.3974345602
 Ca         5.1758133965        9.4751685171        6.5953746592
 Ca         1.9848064208        6.2731043094        6.9155353283
 Ca         6.2629574921        6.0561215054        6.4272806839
 Ca         1.0140215221        9.8487406442        6.6143045419
 Si        -1.3944940414        5.0672821187        8.3250028629
 Si        -2.1459001836       10.2936914607        6.4010977249
 Si        -1.0470225413        7.3862573164        6.3557725029
  O        -5.2755562250       11.5198295063        7.6906584202
  O         4.0989079501        5.2982477032        6.6208585691
  O        -0.9455193139       11.1998250474        5.7905098899
  O        -3.3458246038       10.0210319044        5.3628456135
  O        -2.6952816057       10.8605309979        7.8416500635
  O        -0.8877369382        6.5386735541        7.7629906038
  O        -1.4220170083        8.9018259773        6.9215718654
  O        -1.4359499229        5.0796733517        9.9323605839
  O         0.4548087480        7.5686165776        5.7768105013
  O        -2.1746973658        6.7920822364        5.3676810045
  O         3.0107901487        8.5019990281        6.9106204634
  O        -4.1543286303        7.8842836595        7.9095196499
  O         1.0330216248       10.6682483082        8.8224781186
  O         0.0838901635       12.0803003096        1.0599079313
  O        -3.8009539162       12.4339940463        0.6734865004
  O        -1.4746317234        9.9135920401        0.7141886597
 Ca         6.7459621351       10.2036433630        0.0274336228
  H         3.1532914735        0.8713809298        0.5915189816
  H         4.6468513102        1.3536998302        0.6639348969
  H         5.1443008806       -0.2279669879        9.5208250930
  H         4.9816182185       -1.8429550718        9.2862710118
  H         8.0919649793       -2.5772307979        9.9899968579
  H         9.0423289861       -1.9690703906        8.8488425487
  H         5.6568973726        1.8266648114        9.9054620702
  H         5.9953149838        1.2240167434        8.4128031934
  H         3.8947222192        3.2816139323        9.6380437808
  H         4.2505122632        4.4536144848        8.6956356214
  H         1.9376125766        4.5271632169        0.6451724385
  H         2.1013774341        6.1156152409        0.9686986128
  H        -2.0142703889        5.8353242448        1.3648851616
  H        -1.0093059506        6.4474968374        0.2925797276
  H         1.0640094916        2.8017413126        1.6832504573
  H         1.4220615375        2.1974669823        0.2633004951
  H         0.6946887638        7.7361283182        0.5888981150
  H         2.1817877227        8.2215905558        0.6463341657
  H         2.6449136090        6.6129649547        9.4862034844
  H         2.5042297493        5.0018719642        9.2422458762
  H         5.6363758175        4.2913345334        9.9959930943
  H         6.5902720979        4.9008009447        8.8571100715
  H         3.1803523363        8.6652077450        9.9129393625
  H         3.5235152977        8.0705422829        8.4233543804
  H         1.4380657535       10.1508367629        9.6382022849
  H         1.7861375488       11.3123233787        8.6852339874
  H        -0.5185367448       11.3961713297        0.6494151453
  H        -0.3482617311       12.9843053810        0.9732455998
  H        -4.4844618250       12.7042588309        1.3647960222
  H        -3.4744173681       13.3115279717        0.2906717633
  H        -1.4012523039        9.6711210121        1.6814201057
  H        -1.0377722731        9.0677945202        0.2616657501
  H         0.5775743952        5.3567785077        4.4849477965
  H         1.3487839520        2.7066534060        4.2064654192
  H        -0.4769899293        3.6897886118        2.4036592424
  H         6.3786726244       -1.3443602201        5.6763378656
  H         5.6849318222        1.2385356162        6.0308014809
  H        -0.7754666710        1.3569281126        7.9478371597
  H        -1.8828772597       12.2333797989        4.4866410249
  H        -1.1149469827        9.5735572343        4.2079179064
  H        -2.9388257013       10.5602900008        2.4012196029
  H         3.9307189177        5.5163251593        5.6705033488
  H         3.2171760187        8.1224500862        6.0251879245
  H        -3.2390998780        8.2309074282        7.9539832799
     138
 i =        4, E =     -1761.2515319274
 Ca        -0.7030357187        1.3702631138        3.6739091931
 Ca         2.5257022180        4.5787008914        3.2807034507
 Ca        -1.8262996853        4.8433576042        3.9555436667
 Ca         3.4458961921        0.9435903897        3.5213245815
 Si         5.9416373992        5.8093721543        1.9694849745
 Si         6.6857826393        0.6522130775        3.7917477209
 Si         5.5118231186        3.4947355187        3.9325627576
  O         4.9274276795       13.0215860838        2.5966701334
  O         0.3628067537        5.5383131495        3.5384069303
  O         5.4593601673       -0.2784870244        4.3092991682
  O         7.8207508397        0.8485837744        4.9371661350
  O         7.3811411045        0.1876066392        2.3742320423
  O         5.2468151152        4.4629780575        2.6209044848
  O         6.0226478718        2.0697334162        3.2980627036
  O         5.9874915957        5.6781125472        0.3659172458
  O         4.0011638145        3.1884891095        4.4458645547
  O         6.5994930563        4.0983808273        4.9663113869
  O         1.4737288787        2.3143872116        3.3112188683
  O        -1.3268363542        3.1872644572        2.3918080605
  O         3.9848816811        0.8391573229        1.2199457008
  O         4.4587347336       -0.9659560543        9.3196527714
  O         8.2489146168       -1.7187684247        9.4488743145
  O         6.0970134648        0.9984233039        9.3910197585
 Ca         7.6362071650        2.6050926088        6.5923006470
 Ca         4.4301330203       -0.6056796213        6.9547266167
 Ca         8.7145140461       -0.8061607995        6.4267931973
 Ca         3.4776112006        2.9844768831        6.6163991874
 Si         1.0516867862       -1.8054526757        8.3250590047
 Si         0.3044375153        3.4183729605        6.3993816350
 Si         1.4267828548        0.5144419082        6.3591149427
  O        -2.8263944120        4.6480488486        7.6867319594
  O         6.5394271244       -1.5645822777        6.6251004640
  O         1.5023386871        4.3260814635        5.7864167757
  O        -0.9054450300        3.1476499740        5.3704498916
  O        -0.2269682423        3.9995547867        7.8389840422
  O         1.5690846879       -0.3363677859        7.7672799695
  O         1.0356605790        2.0282016044        6.9192801331
  O         1.0113153806       -1.7940598733        9.9321805818
  O         2.9349189060        0.7013004083        5.7900421987
  O         0.3132388499       -0.0837577335        5.3588791792
  O         5.4592506748        1.6317826117        6.9101267206
  O        -1.6929540618        1.0186904519        7.9081271613
  O         3.5118423953        3.7972030106        8.8153103548
  O         2.5320513168        5.2143419543        1.0561170899