 DBCSR| CPU Multiplication driver                                           XSMM (U)
 DBCSR| Multrec recursion limit                                              512 (U)
 DBCSR| Multiplication stack size                                           1000 (D)
 DBCSR| Maximum elements for images                                    UNLIMITED (U)
 DBCSR| Multiplicative factor virtual images                                   1 (U)
 DBCSR| Use multiplication densification                                       T (D)
 DBCSR| Multiplication size stacks                                             3 (U)
 DBCSR| Use memory pool for CPU allocation                                     F (U)
 DBCSR| Number of 3D layers                                               SINGLE (U)
 DBCSR| Use MPI memory allocation                                              F (U)
 DBCSR| Use RMA algorithm                                                      F (U)
 DBCSR| Use Communication thread                                               T (U)
 DBCSR| Communication thread load                                             83 (D)
 DBCSR| MPI: My process id                                                     0
 DBCSR| MPI: Number of processes                                              52
 DBCSR| OMP: Current number of threads                                         2
 DBCSR| OMP: Max number of threads                                             2
 DBCSR| Split modifier for TAS multiplication algorithm                  1.0E+00 (U)


  **** **** ******  **  PROGRAM STARTED AT               2025-01-16 08:05:40.368
 ***** ** ***  *** **   PROGRAM STARTED ON                           ubuntu-GPU2
 **    ****   ******    PROGRAM STARTED BY                                   zkm
 ***** **    ** ** **   PROGRAM PROCESS ID                               3481719
  **** **  *******  **  PROGRAM STARTED IN /home/zkm/CP2K/Generate_dataset/Jenni
                                           te/Elastic/elastic_cp2k/example/epsil
                                           onxz/pos

 CP2K| version string:                                       CP2K version 2024.3
 CP2K| source code revision number:                                  git:6712648
 CP2K| cp2kflags: omp libint fftw3 libxc libgrpp pexsi elpa parallel scalapack m
 CP2K|            pi_f08 cosma quip xsmm plumed2 spglib mkl sirius libvori libbq
 CP2K|            qb libvdwxc hdf5
 CP2K| is freely available from                            https://www.cp2k.org/
 CP2K| Program compiled at            2024年 10月 05日 星期六 13:00:57 CST
 CP2K| Program compiled on                                           ubuntu-GPU2
 CP2K| Program compiled for                                                local
 CP2K| Data directory path                       /home/zkm/CP2K/cp2k-2024.3/data
 CP2K| Input file name                                                geoopt.inp

 GLOBAL| Force Environment number                                              1
 GLOBAL| Basis set file name                                        BASIS_MOLOPT
 GLOBAL| Potential file name                                           POTENTIAL
 GLOBAL| MM Potential file name                                     MM_POTENTIAL
 GLOBAL| Coordinate file name                                          coord.xyz
 GLOBAL| Method name                                                        CP2K
 GLOBAL| Project name                                                     geoopt
 GLOBAL| Run type                                                        GEO_OPT
 GLOBAL| FFT library                                                       FFTW3
 GLOBAL| Diagonalization library                                            ELPA
 GLOBAL| DGEMM library                                                      BLAS
 GLOBAL| Minimum number of eigenvectors for ELPA usage                        16
 GLOBAL| Orthonormality check for eigenvectors                          DISABLED
 GLOBAL| Matrix multiplication library                                     COSMA
 GLOBAL| All-to-all communication in single precision                          F
 GLOBAL| FFTs using library dependent lengths                                  F
 GLOBAL| Grid backend                                                       AUTO
 GLOBAL| Global print level                                                  LOW
 GLOBAL| MPI I/O enabled                                                       T
 GLOBAL| Total number of message passing processes                            52
 GLOBAL| Number of threads for this process                                    2
 GLOBAL| This output is from process                                           0
 GLOBAL| Stack size for threads created by OpenMP (OMP_STACKSIZE)        default
 GLOBAL| CPU model name            Intel(R) Xeon(R) Platinum 8179M CPU @ 2.40GHz
 GLOBAL| CPUID                                                              1003

 MEMORY| system memory details [Kb]
 MEMORY|                        rank 0           min           max       average
 MEMORY| MemTotal            527974664     527974664     527974664     527974664
 MEMORY| MemFree             104725008     104725008     104725008     104725008
 MEMORY| Buffers               6978732       6978732       6978732       6978732
 MEMORY| Cached              241566772     241566772     241566772     241566772
 MEMORY| Slab                 39926524      39926524      39926524      39926524
 MEMORY| SReclaimable         37100644      37100644      37100644      37100644
 MEMORY| MemLikelyFree       390371156     390371156     390371156     390371156


 GENERATE|  Preliminary Number of Bonds generated:                             0
 GENERATE|  Achieved consistency in connectivity generation.

 *******************************************************************************
 *******************************************************************************
 **                                                                           **
 **     #####                         ##              ##                      **
 **    ##   ##            ##          ##              ##                      **
 **   ##     ##                       ##            ######                    **
 **   ##     ##  ##   ##  ##   #####  ##  ##   ####   ##    #####    #####    **
 **   ##     ##  ##   ##  ##  ##      ## ##   ##      ##   ##   ##  ##   ##   **
 **   ##  ## ##  ##   ##  ##  ##      ####     ###    ##   ######   ######    **
 **    ##  ###   ##   ##  ##  ##      ## ##      ##   ##   ##       ##        **
 **     #######   #####   ##   #####  ##  ##  ####    ##    #####   ##        **
 **           ##                                                    ##        **
 **                                                                           **
 **                                                ... make the atoms dance   **
 **                                                                           **
 **            Copyright (C) by CP2K developers group (2000-2024)             **
 **                      J. Chem. Phys. 152, 194103 (2020)                    **
 **                                                                           **
 *******************************************************************************


 TOTAL NUMBERS AND MAXIMUM NUMBERS

  Total number of            - Atomic kinds:                                   4
                             - Atoms:                                        138
                             - Shell sets:                                   138
                             - Shells:                                       620
                             - Primitive Cartesian functions:                696
                             - Cartesian basis functions:                   1554
                             - Spherical basis functions:                   1460

  Maximum angular momentum of- Orbital basis functions:                        2
                             - Local part of the GTH pseudopotential:          2
                             - Non-local part of the GTH pseudopotential:      3


 SCF PARAMETERS         Density guess:                                    ATOMIC
                        --------------------------------------------------------
                        max_scf:                                              25
                        max_scf_history:                                       0
                        max_diis:                                              4
                        --------------------------------------------------------
                        eps_scf:                                        1.00E-07
                        eps_scf_history:                                0.00E+00
                        eps_diis:                                       1.00E-01
                        eps_eigval:                                     1.00E-05
                        --------------------------------------------------------
                        level_shift [a.u.]:                             0.000000
                        --------------------------------------------------------
                        Outer loop SCF in use 
                        No variables optimised in outer loop
                        eps_scf                                         1.00E-07
                        max_scf                                               20
                        No outer loop optimization
                        step_size                                       5.00E-01

 BFGS| Use rational function optimization for step estimation:                NO
 BFGS| Use model Hessian for initial guess:                                  YES
 BFGS| Restart Hessian:                                                       NO
 BFGS| Trust radius:                                                       0.378

 *******************************************************************************
 ***                     STARTING GEOMETRY OPTIMIZATION                      ***
 ***                                   BFGS                                  ***
 *******************************************************************************

 Number of electrons:                                                        656
 Number of occupied orbitals:                                                328
 Number of molecular orbitals:                                               328

 Number of orbital functions:                                               1460
 Number of independent orbital functions:                                   1460

 Extrapolation method: initial_guess


 SCF WAVEFUNCTION OPTIMIZATION

  ----------------------------------- OT ---------------------------------------
  Minimizer      : DIIS                : direct inversion
                                         in the iterative subspace
                                         using   7 DIIS vectors
                                         safer DIIS on
  Preconditioner : FULL_KINETIC        : inversion of T + eS
  Precond_solver : DEFAULT
  stepsize       :    0.15000000                  energy_gap     :    0.20000000
  eps_taylor     :   0.10000E-15                  max_taylor     :             4
  ----------------------------------- OT ---------------------------------------

  Step     Update method      Time    Convergence         Total energy    Change
  ------------------------------------------------------------------------------
     1 OT DIIS     0.15E+00    1.0     0.01899824     -1710.3108409580 -1.71E+03
     2 OT DIIS     0.15E+00    1.8     0.01127222     -1728.8029658019 -1.85E+01
     3 OT DIIS     0.15E+00    1.7     0.00837459     -1737.8997590434 -9.10E+00
     4 OT DIIS     0.15E+00    1.7     0.00558504     -1746.5193928245 -8.62E+00
     5 OT DIIS     0.15E+00    1.9     0.00414825     -1750.9739728585 -4.45E+00
     6 OT DIIS     0.15E+00    1.8     0.00320337     -1753.8469018141 -2.87E+00
     7 OT DIIS     0.15E+00    1.7     0.00245628     -1755.9933030976 -2.15E+00
     8 OT DIIS     0.15E+00    1.7     0.00193307     -1757.4121983367 -1.42E+00
     9 OT DIIS     0.15E+00    1.9     0.00154748     -1758.3535801345 -9.41E-01
    10 OT DIIS     0.15E+00    1.7     0.00131434     -1758.9629367584 -6.09E-01
    11 OT DIIS     0.15E+00    1.7     0.00111814     -1759.3842844377 -4.21E-01
    12 OT DIIS     0.15E+00    1.7     0.00099314     -1759.7308227942 -3.47E-01
    13 OT DIIS     0.15E+00    1.9     0.00085435     -1759.9828793943 -2.52E-01
    14 OT DIIS     0.15E+00    1.7     0.00074639     -1760.2034327654 -2.21E-01
    15 OT DIIS     0.15E+00    1.8     0.00064468     -1760.3879484414 -1.85E-01
    16 OT DIIS     0.15E+00    1.7     0.00058114     -1760.5133602339 -1.25E-01
    17 OT DIIS     0.15E+00    1.9     0.00054017     -1760.6135712476 -1.00E-01
    18 OT DIIS     0.15E+00    1.7     0.00051739     -1760.6818731642 -6.83E-02
    19 OT DIIS     0.15E+00    1.8     0.00051482     -1760.7385842619 -5.67E-02
    20 OT DIIS     0.15E+00    1.7     0.00050415     -1760.7464226627 -7.84E-03
    21 OT SD       0.15E+00    1.8     0.00050839     -1760.7559633345 -9.54E-03
    22 OT DIIS     0.15E+00    1.7     0.00050505     -1760.7744619299 -1.85E-02
    23 OT DIIS     0.15E+00    1.7     0.00049802     -1760.7836969733 -9.24E-03
    24 OT DIIS     0.15E+00    2.4     0.00049219     -1760.7957275068 -1.20E-02
    25 OT DIIS     0.15E+00    1.7     0.00046980     -1760.8332913911 -3.76E-02

  Leaving inner SCF loop after reaching    25 steps.


  Electronic density on regular grids:       -655.9999999993        0.0000000007
  Core density on regular grids:              655.9999999997       -0.0000000003
  Total charge density on r-space grids:        0.0000000003
  Total charge density g-space grids:           0.0000000003

  Overlap energy of the core charge distribution:               0.00000060301891
  Self energy of the core charge distribution:              -4144.80997841715816
  Core Hamiltonian energy:                                   1116.97592435197294
  Hartree energy:                                            1614.19098583266623
  Exchange-correlation energy:                               -346.69512902475049
  Dispersion energy:                                           -0.49509473681568

  Total energy:                                             -1760.83329139106650

  outer SCF iter =    1 RMS gradient =   0.47E-03 energy =      -1760.8332913911

  ----------------------------------- OT ---------------------------------------
  Minimizer      : DIIS                : direct inversion
                                         in the iterative subspace
                                         using   7 DIIS vectors
                                         safer DIIS on
  Preconditioner : FULL_KINETIC        : inversion of T + eS
  Precond_solver : DEFAULT
  stepsize       :    0.15000000                  energy_gap     :    0.20000000
  eps_taylor     :   0.10000E-15                  max_taylor     :             4
  ----------------------------------- OT ---------------------------------------

  Step     Update method      Time    Convergence         Total energy    Change
  ------------------------------------------------------------------------------
     1 OT DIIS     0.15E+00    3.4     0.00078511     -1760.8495372263 -1.62E-02
     2 OT DIIS     0.15E+00    1.7     0.00069663     -1760.8907437677 -4.12E-02
     3 OT DIIS     0.15E+00    1.9     0.00061454     -1760.9579545646 -6.72E-02
     4 OT DIIS     0.15E+00    1.7     0.00054863     -1761.0277736539 -6.98E-02
     5 OT DIIS     0.15E+00    1.7     0.00045578     -1761.1085179395 -8.07E-02
     6 OT DIIS     0.15E+00    1.7     0.00033082     -1761.1820945202 -7.36E-02
     7 OT DIIS     0.15E+00    1.9     0.00023004     -1761.2183660808 -3.63E-02
     8 OT DIIS     0.15E+00    1.7     0.00014604     -1761.2370130859 -1.86E-02
     9 OT DIIS     0.15E+00    1.7     0.00010196     -1761.2424685637 -5.46E-03
    10 OT DIIS     0.15E+00    1.7     0.00007180     -1761.2449017014 -2.43E-03
    11 OT DIIS     0.15E+00    1.9     0.00005236     -1761.2460373884 -1.14E-03
    12 OT DIIS     0.15E+00    1.7     0.00003863     -1761.2466656727 -6.28E-04
    13 OT DIIS     0.15E+00    1.7     0.00002913     -1761.2470151671 -3.49E-04
    14 OT DIIS     0.15E+00    1.7     0.00002205     -1761.2472132105 -1.98E-04
    15 OT DIIS     0.15E+00    1.9     0.00001617     -1761.2473323025 -1.19E-04
    16 OT DIIS     0.15E+00    1.7     0.00001214     -1761.2473925632 -6.03E-05
    17 OT DIIS     0.15E+00    1.7     0.00000932     -1761.2474237065 -3.11E-05
    18 OT DIIS     0.15E+00    1.7     0.00000730     -1761.2474410758 -1.74E-05
    19 OT DIIS     0.15E+00    1.9     0.00000576     -1761.2474515061 -1.04E-05
    20 OT DIIS     0.15E+00    1.7     0.00000454     -1761.2474580216 -6.52E-06
    21 OT DIIS     0.15E+00    1.7     0.00000362     -1761.2474619301 -3.91E-06
    22 OT DIIS     0.15E+00    1.7     0.00000292     -1761.2474643123 -2.38E-06
    23 OT DIIS     0.15E+00    1.9     0.00000234     -1761.2474659136 -1.60E-06
    24 OT DIIS     0.15E+00    2.4     0.00000189     -1761.2474669673 -1.05E-06
    25 OT DIIS     0.15E+00    1.7     0.00000151     -1761.2474677006 -7.33E-07

  Leaving inner SCF loop after reaching    25 steps.


  Electronic density on regular grids:       -655.9999999993        0.0000000007
  Core density on regular grids:              655.9999999997       -0.0000000003
  Total charge density on r-space grids:        0.0000000003
  Total charge density g-space grids:           0.0000000003

  Overlap energy of the core charge distribution:               0.00000060301891
  Self energy of the core charge distribution:              -4144.80997841715816
  Core Hamiltonian energy:                                   1117.21761515732373
  Hartree energy:                                            1613.74614218365900
  Exchange-correlation energy:                               -346.90615249061830
  Dispersion energy:                                           -0.49509473681568

  Total energy:                                             -1761.24746770059051

  outer SCF iter =    2 RMS gradient =   0.15E-05 energy =      -1761.2474677006

  ----------------------------------- OT ---------------------------------------
  Minimizer      : DIIS                : direct inversion
                                         in the iterative subspace
                                         using   7 DIIS vectors
                                         safer DIIS on
  Preconditioner : FULL_KINETIC        : inversion of T + eS
  Precond_solver : DEFAULT
  stepsize       :    0.15000000                  energy_gap     :    0.20000000
  eps_taylor     :   0.10000E-15                  max_taylor     :             4
  ----------------------------------- OT ---------------------------------------

  Step     Update method      Time    Convergence         Total energy    Change
  ------------------------------------------------------------------------------
     1 OT DIIS     0.15E+00    3.5     0.00000148     -1761.2474681789 -4.78E-07
     2 OT DIIS     0.15E+00    1.9     0.00000129     -1761.2474683247 -1.46E-07
     3 OT DIIS     0.15E+00    1.7     0.00000101     -1761.2474685817 -2.57E-07
     4 OT DIIS     0.15E+00    1.7     0.00000067     -1761.2474688136 -2.32E-07
     5 OT DIIS     0.15E+00    1.7     0.00000039     -1761.2474689478 -1.34E-07
     6 OT DIIS     0.15E+00    1.9     0.00000026     -1761.2474689782 -3.05E-08
     7 OT DIIS     0.15E+00    1.7     0.00000013     -1761.2474689956 -1.74E-08
     8 OT DIIS     0.15E+00    1.7     0.00000010     -1761.2474689985 -2.87E-09

  *** SCF run converged in     8 steps ***


  Electronic density on regular grids:       -655.9999999993        0.0000000007
  Core density on regular grids:              655.9999999997       -0.0000000003
  Total charge density on r-space grids:        0.0000000003
  Total charge density g-space grids:           0.0000000003

  Overlap energy of the core charge distribution:               0.00000060301891
  Self energy of the core charge distribution:              -4144.80997841715816
  Core Hamiltonian energy:                                   1117.21731152731581
  Hartree energy:                                            1613.74639178428856
  Exchange-correlation energy:                               -346.90609975913293
  Dispersion energy:                                           -0.49509473681568

  Total energy:                                             -1761.24746899848378

  outer SCF iter =    3 RMS gradient =   0.96E-07 energy =      -1761.2474689985
  outer SCF loop converged in   3 iterations or   58 steps


 ENERGY| Total FORCE_EVAL ( QS ) energy [a.u.]:            -1761.247468999874854

 ATOMIC FORCES in [a.u.]

 # Atom   Kind   Element          X              Y              Z
      1      1      Ca         -0.00001519    -0.00002355    -0.00043573
      2      1      Ca         -0.00012381    -0.00019124     0.00027639
      3      1      Ca         -0.00016834     0.00009412    -0.00044662
      4      1      Ca         -0.00042595    -0.00004490     0.00085999
      5      2      Si          0.00147130    -0.00019840    -0.00045983
      6      2      Si          0.00035272     0.00010054     0.00018130
      7      2      Si          0.00038433     0.00023979     0.00012987
      8      3      O          -0.00144440    -0.00010616     0.00021924
      9      3      O           0.00211891    -0.00067697     0.00020546
     10      3      O          -0.00287403    -0.00001746    -0.00038900
     11      3      O          -0.00019166    -0.00024999    -0.00025274
     12      3      O           0.00174862     0.00045657    -0.00017891
     13      3      O           0.00147208     0.00061252     0.00032459
     14      3      O          -0.00122082     0.00044038    -0.00088772
     15      3      O          -0.00917565     0.00514509     0.00087227
     16      3      O          -0.00184501    -0.00064478     0.00009118
     17      3      O          -0.00026767     0.00040957     0.00061070
     18      3      O           0.00174855    -0.00088382    -0.00011395
     19      3      O           0.00170757    -0.00077971    -0.00005072
     20      3      O          -0.00920239    -0.00130666    -0.00372677
     21      3      O          -0.00101348    -0.00249746    -0.00037348
     22      3      O           0.00222296     0.00456863    -0.00235251
     23      3      O           0.00602436    -0.00739879    -0.00213844
     24      1      Ca         -0.00048566    -0.00006615     0.00066397
     25      1      Ca          0.00039068     0.00070689     0.00006733
     26      1      Ca         -0.00009654    -0.00023449     0.00020426
     27      1      Ca          0.00047587    -0.00037641    -0.00085189
     28      2      Si         -0.00082312    -0.00046610     0.00029411
     29      2      Si         -0.00039833    -0.00008029    -0.00030523
     30      2      Si         -0.00028121    -0.00025158    -0.00023778
     31      3      O           0.00077218     0.00023732    -0.00074495
     32      3      O          -0.00092708    -0.00049901     0.00006800
     33      3      O          -0.00016949     0.00074609     0.00016510
     34      3      O          -0.00287112     0.00006740     0.00035188
     35      3      O           0.00045446    -0.00030077    -0.00001092
     36      3      O           0.00064302     0.00018117    -0.00004046
     37      3      O          -0.00052487    -0.00001390     0.00023011
     38      3      O           0.01077488    -0.00044687     0.00005231
     39      3      O          -0.00047431     0.00004508    -0.00015061
     40      3      O           0.00121449     0.00037182     0.00059589
     41      3      O          -0.00107118    -0.00004858    -0.00121897
     42      3      O           0.00267396    -0.00015663    -0.00074694
     43      3      O           0.00636251    -0.00469603     0.00776538
     44      3      O           0.00187068     0.00109547    -0.00051403
     45      3      O           0.00163359    -0.00374565     0.00144138
     46      3      O           0.00007445     0.00596925     0.00255146
     47      1      Ca         -0.00764856     0.00084193    -0.00006645
     48      1      Ca          0.00009301    -0.00016772    -0.00044780
     49      1      Ca         -0.00028074    -0.00025654     0.00027857
     50      1      Ca         -0.00005762    -0.00002005    -0.00040161
     51      1      Ca         -0.00051257    -0.00001781     0.00106824
     52      2      Si          0.00136846     0.00003139    -0.00051075
     53      2      Si          0.00046787    -0.00009298     0.00022095
     54      2      Si          0.00036308     0.00037683     0.00024758
     55      3      O          -0.00169436    -0.00008304     0.00030624
     56      3      O           0.00203566    -0.00064199     0.00030291
     57      3      O          -0.00293295     0.00004359    -0.00054627
     58      3      O          -0.00036467    -0.00008832    -0.00015427
     59      3      O           0.00177574     0.00046744    -0.00034474
     60      3      O           0.00144654     0.00052516     0.00022589
     61      3      O          -0.00138418     0.00029662    -0.00089175
     62      3      O          -0.00915433     0.00507350     0.00080110
     63      3      O          -0.00196659    -0.00072768     0.00028568
     64      3      O          -0.00027030     0.00058782     0.00057879
     65      3      O           0.00175892    -0.00095775    -0.00013206
     66      3      O           0.00173800    -0.00069800     0.00007481
     67      3      O          -0.00890842    -0.00106795    -0.00413741
     68      3      O           0.00163349    -0.00165146     0.00024577
     69      3      O           0.00208780     0.00464619    -0.00254599
     70      3      O           0.00330424    -0.00785906    -0.00285111
     71      1      Ca         -0.00035743    -0.00014100     0.00058220
     72      1      Ca          0.00045171     0.00067102     0.00004225
     73      1      Ca         -0.00014935    -0.00018156     0.00024744
     74      1      Ca          0.00047669    -0.00045369    -0.00105447
     75      2      Si         -0.00094003    -0.00044395     0.00029112
     76      2      Si         -0.00041042     0.00002230    -0.00028936
     77      2      Si         -0.00027708    -0.00006960    -0.00037387
     78      3      O           0.00090961     0.00043483    -0.00049850
     79      3      O          -0.00115389    -0.00009907     0.00009228
     80      3      O          -0.00041957     0.00062694     0.00018547
     81      3      O          -0.00278935     0.00006680     0.00032752
     82      3      O           0.00049778    -0.00025419    -0.00011616
     83      3      O           0.00087819     0.00037817     0.00005490
     84      3      O          -0.00049142     0.00009133     0.00026325
     85      3      O           0.01113138    -0.00043327     0.00007860
     86      3      O          -0.00072946     0.00027546    -0.00029013
     87      3      O           0.00107975     0.00033972     0.00048784
     88      3      O          -0.00123402     0.00003843    -0.00127788
     89      3      O           0.00257246    -0.00002168    -0.00072588
     90      3      O           0.00618940    -0.00445982     0.00790414
     91      3      O           0.00183559     0.00106490    -0.00054326
     92      3      O           0.00134016    -0.00364983     0.00133449
     93      3      O           0.00032770     0.00612985     0.00265967
     94      1      Ca         -0.00762962     0.00058284    -0.00012302
     95      4      H           0.00272544    -0.00012390     0.00327890
     96      4      H          -0.00064274     0.00132632    -0.00175531
     97      4      H           0.00348306     0.00330712    -0.00050781
     98      4      H           0.00022017     0.00103753    -0.00058205
     99      4      H           0.00185830    -0.00221489     0.00072329
    100      4      H          -0.00073346    -0.00067847     0.00076930
    101      4      H           0.00332031     0.00084773     0.00067479
    102      4      H           0.00100203    -0.00057600     0.00205921
    103      4      H          -0.00111872     0.00220045    -0.00405540
    104      4      H           0.00136524     0.00105876     0.00016880
    105      4      H          -0.00075516    -0.00062547     0.00003851
    106      4      H           0.00006190    -0.00096157     0.00013168
    107      4      H           0.00015347    -0.00010594    -0.00103081
    108      4      H          -0.00211356     0.00094947    -0.00043464
    109      4      H          -0.00030723     0.00018782    -0.00041609
    110      4      H          -0.00152375    -0.00251681    -0.00089309
    111      4      H           0.00267516    -0.00021577     0.00351895
    112      4      H          -0.00059219     0.00111184    -0.00157983
    113      4      H           0.00300285     0.00278136    -0.00054251
    114      4      H           0.00000876     0.00073084    -0.00066011
    115      4      H           0.00192257    -0.00228821     0.00090577
    116      4      H          -0.00052245    -0.00064935     0.00063297
    117      4      H           0.00331885     0.00039373     0.00055282
    118      4      H           0.00097913    -0.00077374     0.00212888
    119      4      H          -0.00127187     0.00209483    -0.00407761
    120      4      H           0.00145864     0.00097040     0.00023259
    121      4      H          -0.00073330    -0.00068728     0.00002672
    122      4      H           0.00006714    -0.00083977     0.00011429
    123      4      H          -0.00001168     0.00006060    -0.00063145
    124      4      H          -0.00193387     0.00103802    -0.00015510
    125      4      H          -0.00043422     0.00028473    -0.00028873
    126      4      H          -0.00156930    -0.00243779    -0.00096665
    127      4      H           0.00001686     0.00003313     0.00000812
    128      4      H          -0.00005356    -0.00002808     0.00000058
    129      4      H          -0.00002581     0.00012119    -0.00016166
    130      4      H          -0.00005199    -0.00004036     0.00003372
    131      4      H          -0.00005482     0.00013931    -0.00014464
    132      4      H           0.00020920     0.00033318    -0.00105753
    133      4      H           0.00004085     0.00000795     0.00001646
    134      4      H           0.00002515     0.00001537    -0.00000312
    135      4      H          -0.00005235     0.00004863    -0.00004868
    136      4      H          -0.00006107    -0.00006114    -0.00003762
    137      4      H          -0.00014843     0.00007546    -0.00011974
    138      4      H           0.00019412     0.00034114    -0.00109557
 SUM OF ATOMIC FORCES           0.01790483    -0.00016723    -0.00277050     0.01811868

 STRESS| Analytical stress tensor [GPa]
 STRESS|                        x                   y                   z
 STRESS|      x       -3.36691340900E-01   1.32961774972E-02  -3.96952617381E-01
 STRESS|      y        1.32961774972E-02   2.98825739473E-01   9.67499342245E-02
 STRESS|      z       -3.96952617381E-01   9.67499342245E-02   5.76749799733E-03
 STRESS| 1/3 Trace                                            -1.06993678099E-02
 STRESS| Determinant                                          -4.55373506929E-02

 STRESS| Eigenvectors and eigenvalues of the analytical stress tensor [GPa]
 STRESS|                        1                   2                   3
 STRESS| Eigenvalues  -6.02386516796E-01   2.09564348506E-01   3.60724064860E-01
 STRESS|      x           0.829997346898     -0.473796238007     -0.294315356366
 STRESS|      y          -0.071628975612     -0.613839847594      0.786174237277
 STRESS|      z           0.553148889536      0.631441023656      0.543422984101

 OPT| **************************************************************************
 OPT| Step number                                                              0
 OPT| Optimization method                                                   BFGS
 OPT| Total energy [hartree]                                    -1761.2474689999
 OPT| Used time [s]                                                      107.084
 OPT| **************************************************************************
 OPT| Estimated peak process memory [MiB]                                    448

 --------------------------
 OPTIMIZATION STEP:      1
 --------------------------

 Number of electrons:                                                        656
 Number of occupied orbitals:                                                328
 Number of molecular orbitals:                                               328

 Number of orbital functions:                                               1460
 Number of independent orbital functions:                                   1460

 Extrapolation method: ASPC


 SCF WAVEFUNCTION OPTIMIZATION

  ----------------------------------- OT ---------------------------------------
  Minimizer      : DIIS                : direct inversion
                                         in the iterative subspace
                                         using   7 DIIS vectors
                                         safer DIIS on
  Preconditioner : FULL_KINETIC        : inversion of T + eS
  Precond_solver : DEFAULT
  stepsize       :    0.15000000                  energy_gap     :    0.20000000
  eps_taylor     :   0.10000E-15                  max_taylor     :             4
  ----------------------------------- OT ---------------------------------------

  Step     Update method      Time    Convergence         Total energy    Change
  ------------------------------------------------------------------------------
     1 OT DIIS     0.15E+00    1.0     0.00013684     -1761.2489887061 -1.76E+03
     2 OT DIIS     0.15E+00    1.7     0.00009018     -1761.2500838453 -1.10E-03
     3 OT DIIS     0.15E+00    1.7     0.00004849     -1761.2509649988 -8.81E-04
     4 OT DIIS     0.15E+00    1.9     0.00002706     -1761.2513433027 -3.78E-04
     5 OT DIIS     0.15E+00    1.7     0.00001739     -1761.2514729235 -1.30E-04
     6 OT DIIS     0.15E+00    1.7     0.00001158     -1761.2515280120 -5.51E-05
     7 OT DIIS     0.15E+00    1.7     0.00000713     -1761.2515550679 -2.71E-05
     8 OT DIIS     0.15E+00    1.9     0.00000442     -1761.2515653097 -1.02E-05
     9 OT DIIS     0.15E+00    1.7     0.00000318     -1761.2515684011 -3.09E-06
    10 OT DIIS     0.15E+00    1.7     0.00000215     -1761.2515701199 -1.72E-06
    11 OT DIIS     0.15E+00    1.7     0.00000141     -1761.2515710147 -8.95E-07
    12 OT DIIS     0.15E+00    1.9     0.00000096     -1761.2515713881 -3.73E-07
    13 OT DIIS     0.15E+00    1.7     0.00000064     -1761.2515715649 -1.77E-07
    14 OT DIIS     0.15E+00    1.7     0.00000041     -1761.2515716479 -8.31E-08
    15 OT DIIS     0.15E+00    2.1     0.00000028     -1761.2515716765 -2.86E-08
    16 OT DIIS     0.15E+00    1.8     0.00000019     -1761.2515716901 -1.36E-08
    17 OT DIIS     0.15E+00    1.7     0.00000013     -1761.2515716963 -6.20E-09
    18 OT DIIS     0.15E+00    1.7     0.00000009     -1761.2515716986 -2.33E-09

  *** SCF run converged in    18 steps ***


  Electronic density on regular grids:       -655.9999999993        0.0000000007
  Core density on regular grids:              655.9999999997       -0.0000000003
  Total charge density on r-space grids:        0.0000000003
  Total charge density g-space grids:           0.0000000003

  Overlap energy of the core charge distribution:               0.00000060158347
  Self energy of the core charge distribution:              -4144.80997841715816
  Core Hamiltonian energy:                                   1117.19735610064754
  Hartree energy:                                            1613.75788400891815
  Exchange-correlation energy:                               -346.90171130685320
  Dispersion energy:                                           -0.49512268573393

  Total energy:                                             -1761.25157169859631

  outer SCF iter =    1 RMS gradient =   0.94E-07 energy =      -1761.2515716986
  outer SCF loop converged in   1 iterations or   18 steps


 ENERGY| Total FORCE_EVAL ( QS ) energy [a.u.]:            -1761.251571699958049

 ATOMIC FORCES in [a.u.]

 # Atom   Kind   Element          X              Y              Z
      1      1      Ca         -0.00005026    -0.00042393     0.00010107
      2      1      Ca         -0.00024081    -0.00011628    -0.00080034
      3      1      Ca          0.00015392     0.00020042     0.00000457
      4      1      Ca         -0.00011780    -0.00021017    -0.00015996
      5      2      Si         -0.00054635    -0.00004695     0.00107418
      6      2      Si          0.00043226     0.00002853    -0.00040084
      7      2      Si          0.00001233     0.00033552    -0.00075005
      8      3      O          -0.00051313    -0.00034395    -0.00122688
      9      3      O           0.00071810    -0.00039446     0.00010245
     10      3      O          -0.00013826     0.00015152     0.00001455
     11      3      O          -0.00097565    -0.00008816     0.00076991
     12      3      O           0.00070504    -0.00027861    -0.00024051
     13      3      O           0.00115138     0.00048679    -0.00025983
     14      3      O          -0.00123159     0.00069454    -0.00024140
     15      3      O           0.00113781     0.00101884     0.00072697
     16      3      O          -0.00086547     0.00028773     0.00076395
     17      3      O          -0.00046064    -0.00014062     0.00070155
     18      3      O           0.00090057     0.00007946     0.00035683
     19      3      O           0.00055415     0.00045418     0.00026732
     20      3      O          -0.00209079     0.00021255    -0.00016325
     21      3      O           0.00049006    -0.00015890    -0.00097541
     22      3      O           0.00156401    -0.00109067     0.00001687
     23      3      O           0.00096331    -0.00023878    -0.00085544
     24      1      Ca          0.00031246    -0.00019112     0.00012803
     25      1      Ca         -0.00081656    -0.00029475    -0.00026247
     26      1      Ca          0.00043354     0.00019323    -0.00001556
     27      1      Ca         -0.00052650    -0.00004655     0.00005954
     28      2      Si          0.00152593     0.00012599     0.00083034
     29      2      Si         -0.00017840     0.00076681     0.00105249
     30      2      Si         -0.00013911    -0.00058522    -0.00001212
     31      3      O           0.00044685    -0.00036234     0.00067764
     32      3      O           0.00011539     0.00000581    -0.00004069
     33      3      O          -0.00020878    -0.00003427    -0.00066033
     34      3      O           0.00026590    -0.00029141    -0.00135225
     35      3      O          -0.00016742    -0.00009498    -0.00009191
     36      3      O           0.00003249     0.00066720    -0.00080204
     37      3      O           0.00034041    -0.00048214    -0.00065809
     38      3      O           0.00116113    -0.00134868     0.00005467
     39      3      O          -0.00021549     0.00044235     0.00040715
     40      3      O           0.00069077    -0.00014363    -0.00006626
     41      3      O           0.00020595    -0.00002247     0.00043214
     42      3      O          -0.00098523     0.00045327     0.00074657
     43      3      O          -0.00103077    -0.00047252    -0.00108325
     44      3      O           0.00027759     0.00115012     0.00071483
     45      3      O          -0.00190530     0.00185735    -0.00035486
     46      3      O          -0.00285640    -0.00049876     0.00026914
     47      1      Ca         -0.00052400    -0.00028363     0.00028941
     48      1      Ca         -0.00002946    -0.00048324     0.00009610
     49      1      Ca         -0.00025676    -0.00012957    -0.00080878
     50      1      Ca          0.00011014     0.00023160     0.00003892
     51      1      Ca         -0.00003707    -0.00021157    -0.00016825
     52      2      Si         -0.00062171     0.00006836     0.00095379
     53      2      Si          0.00026223     0.00008687    -0.00036921
     54      2      Si          0.00002246     0.00043064    -0.00071353
     55      3      O          -0.00075460    -0.00037563    -0.00124106
     56      3      O           0.00067186    -0.00041761     0.00008282
     57      3      O           0.00005340     0.00006526    -0.00013138
     58      3      O          -0.00106314    -0.00013619     0.00073184
     59      3      O           0.00091144    -0.00018798    -0.00029317
     60      3      O           0.00106583     0.00034559    -0.00023503
     61      3      O          -0.00138684     0.00062692    -0.00025514
     62      3      O           0.00151008     0.00090779     0.00062024
     63      3      O          -0.00101581     0.00033169     0.00075989
     64      3      O          -0.00038634    -0.00014619     0.00069637
     65      3      O           0.00080375     0.00008202     0.00035325
     66      3      O           0.00058284     0.00041183     0.00017236
     67      3      O          -0.00190809     0.00018317    -0.00001377
     68      3      O          -0.00014983    -0.00120477    -0.00128260
     69      3      O           0.00161999    -0.00094622     0.00007378
     70      3      O           0.00069631    -0.00052119    -0.00105927
     71      1      Ca          0.00021999    -0.00007076     0.00001091
     72      1      Ca         -0.00087382    -0.00023484    -0.00002149
     73      1      Ca          0.00034771     0.00020286    -0.00005126
     74      1      Ca         -0.00054237    -0.00004542     0.00006598
     75      2      Si          0.00168448    -0.00000502     0.00090480
     76      2      Si         -0.00006676     0.00092065     0.00107558
     77      2      Si          0.00003266    -0.00037186    -0.00013975
     78      3      O           0.00056113    -0.00050935     0.00066384
     79      3      O           0.00005775     0.00013309    -0.00005752
     80      3      O          -0.00026051    -0.00024660    -0.00070820
     81      3      O           0.00021701    -0.00032944    -0.00121599
     82      3      O          -0.00020657    -0.00008645    -0.00015463
     83      3      O           0.00000353     0.00080639    -0.00075114
     84      3      O           0.00018176    -0.00054311    -0.00066444
     85      3      O           0.00080126    -0.00121668    -0.00005124
     86      3      O          -0.00035928     0.00036805     0.00033804
     87      3      O           0.00047697    -0.00015267    -0.00003662
     88      3      O           0.00046348     0.00005769     0.00036438
     89      3      O          -0.00109311     0.00038327     0.00082025
     90      3      O          -0.00097198    -0.00041112    -0.00101465
     91      3      O           0.00038911     0.00129677     0.00081673
     92      3      O          -0.00178741     0.00156006    -0.00049784
     93      3      O          -0.00325752    -0.00061848     0.00011435
     94      1      Ca         -0.00078485    -0.00026266     0.00036414
     95      4      H          -0.00182783    -0.00050510     0.00003543
     96      4      H          -0.00086200     0.00027111    -0.00025744
     97      4      H           0.00161381     0.00033563     0.00001936
     98      4      H           0.00055795     0.00071627    -0.00001147
     99      4      H          -0.00026010     0.00051131     0.00035711
    100      4      H           0.00053492     0.00127394    -0.00071727
    101      4      H           0.00176115    -0.00048387     0.00084016
    102      4      H           0.00131370    -0.00098403     0.00052197
    103      4      H           0.00131657     0.00131548    -0.00085781
    104      4      H           0.00097946    -0.00077495     0.00147709
    105      4      H          -0.00021678    -0.00138503     0.00004481
    106      4      H           0.00043684    -0.00029807     0.00023062
    107      4      H           0.00038563    -0.00099231    -0.00004033
    108      4      H           0.00033459    -0.00048569    -0.00056942
    109      4      H          -0.00000479     0.00068936    -0.00092322
    110      4      H          -0.00056868     0.00101499     0.00032647
    111      4      H          -0.00154365    -0.00046756     0.00016377
    112      4      H          -0.00074038     0.00022044    -0.00040681
    113      4      H           0.00235476     0.00047937     0.00006564
    114      4      H           0.00081575     0.00084340     0.00012141
    115      4      H          -0.00020242     0.00043364     0.00036332
    116      4      H           0.00064520     0.00120043    -0.00084445
    117      4      H           0.00120233    -0.00082043     0.00046804
    118      4      H           0.00075822    -0.00102401     0.00033822
    119      4      H           0.00113295     0.00129120    -0.00084357
    120      4      H           0.00105358    -0.00081219     0.00151982
    121      4      H          -0.00024686    -0.00143364     0.00001411
    122      4      H           0.00042634    -0.00035496     0.00018464
    123      4      H           0.00011034    -0.00079860     0.00034320
    124      4      H           0.00038250    -0.00039126    -0.00037370
    125      4      H           0.00001042     0.00069039    -0.00090205
    126      4      H          -0.00047607     0.00111394     0.00046397
    127      4      H           0.00039910    -0.00003040     0.00015161
    128      4      H           0.00025653    -0.00033101    -0.00020553
    129      4      H           0.00054805     0.00013805    -0.00073267
    130      4      H          -0.00017496    -0.00018930     0.00020109
    131      4      H          -0.00011644     0.00010983    -0.00009353
    132      4      H           0.00081454     0.00033161    -0.00047422
    133      4      H           0.00041061    -0.00004019     0.00022660
    134      4      H           0.00030480    -0.00031930    -0.00018117
    135      4      H           0.00053971     0.00010620    -0.00065343
    136      4      H          -0.00022020    -0.00015652     0.00015147
    137      4      H          -0.00016070     0.00010234    -0.00017408
    138      4      H           0.00080806     0.00038245    -0.00047055
 SUM OF ATOMIC FORCES           0.00832659     0.00105713    -0.00383198     0.00922680

 STRESS| Analytical stress tensor [GPa]
 STRESS|                        x                   y                   z
 STRESS|      x       -1.70567012528E-01  -3.47004972434E-03  -2.46554308595E-01
 STRESS|      y       -3.47004972434E-03   8.51564841056E-02   3.26965185703E-02
 STRESS|      z       -2.46554308595E-01   3.26965185703E-02  -6.61239448981E-03
 STRESS| 1/3 Trace                                            -3.06743076375E-02
 STRESS| Determinant                                          -4.84216176048E-03

 STRESS| Eigenvectors and eigenvalues of the analytical stress tensor [GPa]
 STRESS|                        1                   2                   3
 STRESS| Eigenvalues  -3.49030411881E-01   7.71225002630E-02   1.79884988706E-01
 STRESS|      x           0.809233302849      0.199433219701     -0.552600988454
 STRESS|      y          -0.037682295508      0.956300899924      0.289945914628
 STRESS|      z           0.586277669851     -0.213810616397      0.781385637282

 OPT| **************************************************************************
 OPT| Step number                                                              1
 OPT| Optimization method                                                   BFGS
 OPT| Total energy [hartree]                                    -1761.2515717000
 OPT| Effective energy change [hartree]                            -0.0041027001
 OPT| Predicted energy change [hartree]                            -0.0038754962
 OPT| Scaling factor                                                0.0000000000
 OPT| Step size                                                     0.0739433629
 OPT| Trust radius                                                  0.3779452266
 OPT| Decrease in energy                                                     YES
 OPT| Used time [s]                                                       35.504
 OPT|
 OPT| Maximum step size                                             0.0739433629
 OPT| Convergence limit for maximum step size                       0.0030000000
 OPT| Maximum step size is converged                                          NO
 OPT|
 OPT| RMS step size                                                 0.0114826136
 OPT| Convergence limit for RMS step size                           0.0015000000
 OPT| RMS step size is converged                                              NO
 OPT|
 OPT| Maximum gradient                                              0.0032575213
 OPT| Convergence limit for maximum gradient                        0.0004500000
 OPT| Maximum gradient is converged                                           NO
 OPT|
 OPT| RMS gradient                                                  0.0007109813
 OPT| Convergence limit for RMS gradient                            0.0003000000
 OPT| RMS gradient is converged                                               NO
 OPT| **************************************************************************
 OPT| Estimated peak process memory after this step [MiB]                    509

 --------------------------
 OPTIMIZATION STEP:      2
 --------------------------

 Number of electrons:                                                        656
 Number of occupied orbitals:                                                328
 Number of molecular orbitals:                                               328

 Number of orbital functions:                                               1460
 Number of independent orbital functions:                                   1460

 Extrapolation method: ASPC


 SCF WAVEFUNCTION OPTIMIZATION

  ----------------------------------- OT ---------------------------------------
  Minimizer      : DIIS                : direct inversion
                                         in the iterative subspace
                                         using   7 DIIS vectors
                                         safer DIIS on
  Preconditioner : FULL_KINETIC        : inversion of T + eS
  Precond_solver : DEFAULT
  stepsize       :    0.15000000                  energy_gap     :    0.20000000
  eps_taylor     :   0.10000E-15                  max_taylor     :             4
  ----------------------------------- OT ---------------------------------------

  Step     Update method      Time    Convergence         Total energy    Change
  ------------------------------------------------------------------------------
     1 OT DIIS     0.15E+00    1.0     0.00014473     -1761.2495866536 -1.76E+03
     2 OT DIIS     0.15E+00    1.7     0.00009528     -1761.2508115284 -1.22E-03
     3 OT DIIS     0.15E+00    1.8     0.00005037     -1761.2517937295 -9.82E-04
     4 OT DIIS     0.15E+00    1.8     0.00002719     -1761.2521978314 -4.04E-04
     5 OT DIIS     0.15E+00    1.7     0.00001713     -1761.2523279495 -1.30E-04
     6 OT DIIS     0.15E+00    1.7     0.00001139     -1761.2523810903 -5.31E-05
     7 OT DIIS     0.15E+00    1.7     0.00000704     -1761.2524068250 -2.57E-05
     8 OT DIIS     0.15E+00    1.9     0.00000435     -1761.2524166008 -9.78E-06
     9 OT DIIS     0.15E+00    1.7     0.00000309     -1761.2524195623 -2.96E-06
    10 OT DIIS     0.15E+00    1.7     0.00000208     -1761.2524211363 -1.57E-06
    11 OT DIIS     0.15E+00    1.7     0.00000135     -1761.2524219755 -8.39E-07
    12 OT DIIS     0.15E+00    1.9     0.00000094     -1761.2524223035 -3.28E-07
    13 OT DIIS     0.15E+00    1.7     0.00000064     -1761.2524224716 -1.68E-07
    14 OT DIIS     0.15E+00    1.7     0.00000040     -1761.2524225555 -8.39E-08
    15 OT DIIS     0.15E+00    1.7     0.00000027     -1761.2524225831 -2.76E-08
    16 OT DIIS     0.15E+00    1.9     0.00000019     -1761.2524225960 -1.28E-08
    17 OT DIIS     0.15E+00    1.7     0.00000013     -1761.2524226020 -6.03E-09
    18 OT DIIS     0.15E+00    1.7     0.00000010     -1761.2524226045 -2.56E-09

  *** SCF run converged in    18 steps ***


  Electronic density on regular grids:       -655.9999999993        0.0000000007
  Core density on regular grids:              655.9999999997       -0.0000000003
  Total charge density on r-space grids:        0.0000000003
  Total charge density g-space grids:           0.0000000003

  Overlap energy of the core charge distribution:               0.00000060247548
  Self energy of the core charge distribution:              -4144.80997841715816
  Core Hamiltonian energy:                                   1117.21692316402346
  Hartree energy:                                            1613.74237622896635
  Exchange-correlation energy:                               -346.90661806359662
  Dispersion energy:                                           -0.49512611926010

  Total energy:                                             -1761.25242260454911

  outer SCF iter =    1 RMS gradient =   0.98E-07 energy =      -1761.2524226045
  outer SCF loop converged in   1 iterations or   18 steps


 ENERGY| Total FORCE_EVAL ( QS ) energy [a.u.]:            -1761.252422606033633

 ATOMIC FORCES in [a.u.]

 # Atom   Kind   Element          X              Y              Z
      1      1      Ca          0.00005756     0.00019048    -0.00008098
      2      1      Ca          0.00000358    -0.00002368    -0.00001776
      3      1      Ca          0.00030835    -0.00029918    -0.00007115
      4      1      Ca          0.00025554    -0.00005775    -0.00016360
      5      2      Si         -0.00033616    -0.00025592     0.00057649
      6      2      Si         -0.00050082    -0.00026746     0.00045816
      7      2      Si         -0.00034888     0.00026828    -0.00008387
      8      3      O           0.00011696    -0.00017866    -0.00016494
      9      3      O          -0.00040356     0.00021760    -0.00011118
     10      3      O           0.00029165    -0.00030348    -0.00033085
     11      3      O          -0.00069991     0.00030814    -0.00017962
     12      3      O           0.00011691    -0.00039057    -0.00016406
     13      3      O           0.00052646     0.00059403    -0.00036166
     14      3      O          -0.00109711     0.00018586    -0.00013960
     15      3      O           0.00159690     0.00009662     0.00006468
     16      3      O          -0.00026442     0.00034223    -0.00017965
     17      3      O          -0.00015471    -0.00000867     0.00019479
     18      3      O           0.00008048     0.00045702    -0.00000496
     19      3      O           0.00001229     0.00044947     0.00024323
     20      3      O           0.00049217     0.00041008     0.00110584
     21      3      O           0.00147159     0.00061909    -0.00010645
     22      3      O          -0.00095164    -0.00064395     0.00064990
     23      3      O          -0.00052727     0.00024654     0.00053246
     24      1      Ca         -0.00000654    -0.00005487     0.00014660
     25      1      Ca         -0.00007476    -0.00013925    -0.00024954
     26      1      Ca         -0.00027150    -0.00008535     0.00033627
     27      1      Ca         -0.00018518     0.00014735     0.00002319
     28      2      Si          0.00080232    -0.00034287     0.00064974
     29      2      Si          0.00028149     0.00037412     0.00020092
     30      2      Si          0.00044574     0.00028427     0.00001971
     31      3      O          -0.00032522     0.00038487    -0.00020854
     32      3      O           0.00018016     0.00020511    -0.00020682
     33      3      O          -0.00019716     0.00002354     0.00014686
     34      3      O          -0.00022448    -0.00010292     0.00006329
     35      3      O           0.00024964     0.00040068    -0.00059102
     36      3      O          -0.00012616     0.00006540    -0.00036823
     37      3      O          -0.00009588    -0.00050651     0.00011280
     38      3      O          -0.00092553    -0.00031341    -0.00034348
     39      3      O          -0.00019552    -0.00031685    -0.00008176
     40      3      O           0.00056885    -0.00008026     0.00009819
     41      3      O           0.00025032    -0.00013439     0.00048661
     42      3      O          -0.00050018    -0.00040149    -0.00041236
     43      3      O           0.00066338     0.00113934     0.00031176
     44      3      O          -0.00001879    -0.00032672     0.00038114
     45      3      O           0.00000764     0.00023254    -0.00046520
     46      3      O           0.00064704    -0.00068305    -0.00009445
     47      1      Ca          0.00098606    -0.00036648     0.00031096
     48      1      Ca          0.00001328     0.00016184    -0.00008986
     49      1      Ca         -0.00001815     0.00001452    -0.00000739
     50      1      Ca          0.00028919    -0.00030774    -0.00011032
     51      1      Ca          0.00033240    -0.00008075    -0.00021841
     52      2      Si         -0.00034291    -0.00030713     0.00044803
     53      2      Si         -0.00055522    -0.00028592     0.00052247
     54      2      Si         -0.00034294     0.00032969    -0.00017018
     55      3      O          -0.00002434    -0.00027354    -0.00019617
     56      3      O          -0.00039944     0.00017097    -0.00010060
     57      3      O           0.00032655    -0.00021772    -0.00041589
     58      3      O          -0.00064438     0.00036278    -0.00028502
     59      3      O           0.00014265    -0.00032957    -0.00013371
     60      3      O           0.00041807     0.00046014    -0.00028876
     61      3      O          -0.00121386     0.00007552    -0.00007420
     62      3      O           0.00163885     0.00003956     0.00003588
     63      3      O          -0.00037115     0.00042834    -0.00016390
     64      3      O          -0.00010549    -0.00001237     0.00019720
     65      3      O           0.00005941     0.00044734    -0.00000611
     66      3      O          -0.00006831     0.00042287     0.00029057
     67      3      O           0.00041730     0.00022130     0.00128485
     68      3      O          -0.00008328    -0.00072906    -0.00038722
     69      3      O          -0.00092457    -0.00070631     0.00072228
     70      3      O           0.00011304     0.00100718     0.00073247
     71      1      Ca         -0.00002365    -0.00010487     0.00011827
     72      1      Ca         -0.00012679    -0.00017490    -0.00014018
     73      1      Ca         -0.00032157    -0.00004570     0.00034816
     74      1      Ca         -0.00019574     0.00016598     0.00009374
     75      2      Si          0.00081130    -0.00028321     0.00074650
     76      2      Si          0.00025109     0.00031610     0.00022469
     77      2      Si          0.00040480     0.00035688     0.00000729
     78      3      O          -0.00021345     0.00045805    -0.00018743
     79      3      O           0.00019059     0.00017400    -0.00020001
     80      3      O          -0.00019729    -0.00001281     0.00021161
     81      3      O          -0.00022328    -0.00000513    -0.00003033
     82      3      O           0.00032871     0.00037372    -0.00065726
     83      3      O           0.00003704     0.00010093    -0.00032933
     84      3      O           0.00004744    -0.00054115     0.00008978
     85      3      O          -0.00087609    -0.00030514    -0.00042466
     86      3      O          -0.00027008    -0.00031472    -0.00000785
     87      3      O           0.00034899    -0.00008439     0.00001786
     88      3      O           0.00008759    -0.00012960     0.00045951
     89      3      O          -0.00052870    -0.00042559    -0.00049288
     90      3      O           0.00060813     0.00089800     0.00024376
     91      3      O          -0.00002508    -0.00036892     0.00036245
     92      3      O           0.00011095     0.00020052    -0.00048565
     93      3      O           0.00074461    -0.00065018    -0.00006624
     94      1      Ca          0.00071106    -0.00031110     0.00030607
     95      4      H          -0.00305897    -0.00020726    -0.00137623
     96      4      H          -0.00155659    -0.00018362     0.00024602
     97      4      H           0.00071987    -0.00001990    -0.00011705
     98      4      H           0.00028046     0.00044788    -0.00015742
     99      4      H           0.00095320     0.00033222    -0.00023848
    100      4      H           0.00110859     0.00006235    -0.00045036
    101      4      H           0.00112400    -0.00065879    -0.00035658
    102      4      H           0.00082695    -0.00037887    -0.00004747
    103      4      H           0.00027175    -0.00120507     0.00063726
    104      4      H           0.00053572     0.00026781    -0.00048548
    105      4      H          -0.00007804    -0.00005363     0.00002341
    106      4      H          -0.00017537    -0.00034131    -0.00005932
    107      4      H          -0.00001482     0.00022788    -0.00007172
    108      4      H          -0.00033384    -0.00031340     0.00008242
    109      4      H          -0.00048934     0.00033745    -0.00049180
    110      4      H          -0.00104848     0.00154874     0.00046051
    111      4      H          -0.00271182    -0.00020306    -0.00115675
    112      4      H          -0.00133716    -0.00017687     0.00005490
    113      4      H           0.00122350     0.00031953    -0.00013047
    114      4      H           0.00041259     0.00016353    -0.00015523
    115      4      H           0.00097248     0.00037715    -0.00025011
    116      4      H           0.00121048     0.00007563    -0.00055255
    117      4      H           0.00070759    -0.00100637    -0.00050063
    118      4      H           0.00041955    -0.00048320    -0.00049032
    119      4      H           0.00008796    -0.00106398     0.00052039
    120      4      H           0.00058114     0.00027278    -0.00036601
    121      4      H          -0.00007588    -0.00002754     0.00002523
    122      4      H          -0.00020101    -0.00035770    -0.00008353
    123      4      H          -0.00021199     0.00028435     0.00018879
    124      4      H          -0.00031166    -0.00038916     0.00018997
    125      4      H          -0.00059535     0.00037893    -0.00049007
    126      4      H          -0.00112253     0.00159283     0.00041961
    127      4      H           0.00057522    -0.00026613     0.00016684
    128      4      H           0.00036320    -0.00025319    -0.00020187
    129      4      H           0.00046003     0.00009944    -0.00054331
    130      4      H          -0.00002904    -0.00016141     0.00024246
    131      4      H          -0.00007647     0.00010776     0.00014899
    132      4      H           0.00028813     0.00018385    -0.00005252
    133      4      H           0.00056284    -0.00027067     0.00020101
    134      4      H           0.00039535    -0.00024912    -0.00017359
    135      4      H           0.00046118     0.00006084    -0.00051672
    136      4      H          -0.00011108    -0.00009117     0.00019811
    137      4      H          -0.00005759     0.00005715     0.00002968
    138      4      H           0.00020819     0.00019191    -0.00003186
 SUM OF ATOMIC FORCES           0.00347188     0.00056618    -0.00198609     0.00403968

 STRESS| Analytical stress tensor [GPa]
 STRESS|                        x                   y                   z
 STRESS|      x       -1.08883227395E-01  -3.93963515843E-02  -1.95119116995E-01
 STRESS|      y       -3.93963515843E-02   3.25249832338E-02   5.16103593949E-04
 STRESS|      z       -1.95119116995E-01   5.16103593949E-04   3.63273695903E-02
 STRESS| 1/3 Trace                                            -1.33436248570E-02
 STRESS| Determinant                                          -1.41534372977E-03

 STRESS| Eigenvectors and eigenvalues of the analytical stress tensor [GPa]
 STRESS|                        1                   2                   3
 STRESS| Eigenvalues  -2.48145719239E-01   3.24734343987E-02   1.75641410269E-01
 STRESS|      x           0.819380971065     -0.001298085429     -0.573247886373
 STRESS|      y           0.113979377142      0.980400325395      0.160698175321
 STRESS|      z           0.561803814372     -0.197011463980      0.803469325623

 OPT| **************************************************************************
 OPT| Step number                                                              2
 OPT| Optimization method                                                   BFGS
 OPT| Total energy [hartree]                                    -1761.2524226060
 OPT| Effective energy change [hartree]                            -0.0008509061
 OPT| Predicted energy change [hartree]                            -0.0007537368
 OPT| Scaling factor                                                0.0000000000
 OPT| Step size                                                     0.0292515135
 OPT| Trust radius                                                  0.3779452266
 OPT| Decrease in energy                                                     YES
 OPT| Used time [s]                                                       35.095
 OPT|
 OPT| Maximum step size                                             0.0292515135
 OPT| Convergence limit for maximum step size                       0.0030000000
 OPT| Maximum step size is converged                                          NO
 OPT|
 OPT| RMS step size                                                 0.0063063102
 OPT| Convergence limit for RMS step size                           0.0015000000
 OPT| RMS step size is converged                                              NO
 OPT|
 OPT| Maximum gradient                                              0.0030589674
 OPT| Convergence limit for maximum gradient                        0.0004500000
 OPT| Maximum gradient is converged                                           NO
 OPT|
 OPT| RMS gradient                                                  0.0005023850
 OPT| Convergence limit for RMS gradient                            0.0003000000
 OPT| RMS gradient is converged                                               NO
 OPT| **************************************************************************
 OPT| Estimated peak process memory after this step [MiB]                    509

 --------------------------
 OPTIMIZATION STEP:      3
 --------------------------

 Number of electrons:                                                        656
 Number of occupied orbitals:                                                328
 Number of molecular orbitals:                                               328

 Number of orbital functions:                                               1460
 Number of independent orbital functions:                                   1460

 Extrapolation method: ASPC


 SCF WAVEFUNCTION OPTIMIZATION

  ----------------------------------- OT ---------------------------------------
  Minimizer      : DIIS                : direct inversion
                                         in the iterative subspace
                                         using   7 DIIS vectors
                                         safer DIIS on
  Preconditioner : FULL_KINETIC        : inversion of T + eS
  Precond_solver : DEFAULT
  stepsize       :    0.15000000                  energy_gap     :    0.20000000
  eps_taylor     :   0.10000E-15                  max_taylor     :             4
  ----------------------------------- OT ---------------------------------------

  Step     Update method      Time    Convergence         Total energy    Change
  ------------------------------------------------------------------------------
     1 OT DIIS     0.15E+00    1.0     0.00009971     -1761.2516088821 -1.76E+03
     2 OT DIIS     0.15E+00    1.7     0.00006559     -1761.2521908564 -5.82E-04
     3 OT DIIS     0.15E+00    1.8     0.00003327     -1761.2526576483 -4.67E-04
     4 OT DIIS     0.15E+00    1.7     0.00001767     -1761.2528287408 -1.71E-04
     5 OT DIIS     0.15E+00    1.7     0.00001101     -1761.2528824350 -5.37E-05
     6 OT DIIS     0.15E+00    1.7     0.00000718     -1761.2529045891 -2.22E-05
     7 OT DIIS     0.15E+00    1.9     0.00000441     -1761.2529148132 -1.02E-05
     8 OT DIIS     0.15E+00    1.7     0.00000265     -1761.2529187064 -3.89E-06
     9 OT DIIS     0.15E+00    1.7     0.00000185     -1761.2529198014 -1.09E-06
    10 OT DIIS     0.15E+00    1.7     0.00000128     -1761.2529203331 -5.32E-07
    11 OT DIIS     0.15E+00    1.9     0.00000082     -1761.2529206430 -3.10E-07
    12 OT DIIS     0.15E+00    1.7     0.00000059     -1761.2529207577 -1.15E-07
    13 OT DIIS     0.15E+00    1.7     0.00000040     -1761.2529208225 -6.48E-08
    14 OT DIIS     0.15E+00    1.7     0.00000025     -1761.2529208560 -3.34E-08
    15 OT DIIS     0.15E+00    1.9     0.00000017     -1761.2529208672 -1.13E-08
    16 OT DIIS     0.15E+00    1.7     0.00000012     -1761.2529208722 -4.97E-09
    17 OT DIIS     0.15E+00    1.7     0.00000008     -1761.2529208747 -2.47E-09

  *** SCF run converged in    17 steps ***


  Electronic density on regular grids:       -655.9999999993        0.0000000007
  Core density on regular grids:              655.9999999997       -0.0000000003
  Total charge density on r-space grids:        0.0000000003
  Total charge density g-space grids:           0.0000000003

  Overlap energy of the core charge distribution:               0.00000060321624
  Self energy of the core charge distribution:              -4144.80997841715816
  Core Hamiltonian energy:                                   1117.24022444408524
  Hartree energy:                                            1613.72448303424108
  Exchange-correlation energy:                               -346.91252743178876
  Dispersion energy:                                           -0.49512310725888

  Total energy:                                             -1761.25292087466323

  outer SCF iter =    1 RMS gradient =   0.83E-07 energy =      -1761.2529208747
  outer SCF loop converged in   1 iterations or   17 steps


 ENERGY| Total FORCE_EVAL ( QS ) energy [a.u.]:            -1761.252920875677091

 ATOMIC FORCES in [a.u.]

 # Atom   Kind   Element          X              Y              Z
      1      1      Ca          0.00000187     0.00009340     0.00015182
      2      1      Ca          0.00003007    -0.00008158     0.00024682
      3      1      Ca          0.00016949    -0.00009440     0.00017567
      4      1      Ca          0.00024555     0.00007502    -0.00018991
      5      2      Si          0.00017741    -0.00044303     0.00007468
      6      2      Si         -0.00036247    -0.00051030     0.00078886
      7      2      Si         -0.00041693     0.00030344     0.00017444
      8      3      O           0.00055561     0.00037067     0.00053465
      9      3      O          -0.00048345     0.00019603    -0.00024189
     10      3      O           0.00023939     0.00013595    -0.00008800
     11      3      O          -0.00030577     0.00040656    -0.00055511
     12      3      O          -0.00010911    -0.00004719    -0.00021883
     13      3      O          -0.00010591     0.00031615    -0.00008680
     14      3      O          -0.00065111    -0.00069318     0.00008093
     15      3      O           0.00069991    -0.00075114    -0.00016619
     16      3      O          -0.00003032     0.00015754     0.00001690
     17      3      O          -0.00014218    -0.00014572    -0.00023734
     18      3      O          -0.00053302     0.00025109    -0.00011137
     19      3      O           0.00011681    -0.00029023    -0.00035554
     20      3      O           0.00085328     0.00029506     0.00044522
     21      3      O           0.00123019     0.00061146     0.00017142
     22      3      O          -0.00079587     0.00026272     0.00044935
     23      3      O          -0.00010058    -0.00003245     0.00104338
     24      1      Ca         -0.00022488     0.00004855     0.00000804
     25      1      Ca          0.00031464     0.00007358     0.00017839
     26      1      Ca         -0.00021991    -0.00007820     0.00004557
     27      1      Ca          0.00025563     0.00021743     0.00030535
     28      2      Si         -0.00004764     0.00000873    -0.00039003
     29      2      Si          0.00003110     0.00020541    -0.00019737
     30      2      Si          0.00021271    -0.00018896    -0.00012729
     31      3      O          -0.00081109    -0.00011917    -0.00036152
     32      3      O          -0.00007826     0.00004646    -0.00004879
     33      3      O          -0.00001344    -0.00039386     0.00029600
     34      3      O           0.00014870     0.00001875     0.00049034
     35      3      O           0.00019980     0.00028660     0.00008279
     36      3      O           0.00023409    -0.00003061     0.00025180
     37      3      O           0.00031605    -0.00007563     0.00004048
     38      3      O          -0.00104997    -0.00017404    -0.00023376
     39      3      O          -0.00009096     0.00017528     0.00019529
     40      3      O           0.00052048     0.00026462     0.00001317
     41      3      O          -0.00006228     0.00004762    -0.00002432
     42      3      O           0.00006545    -0.00008958    -0.00003877
     43      3      O          -0.00046617    -0.00001481    -0.00084298
     44      3      O          -0.00024760     0.00008385    -0.00051464
     45      3      O           0.00074895    -0.00030960    -0.00015748
     46      3      O           0.00095297    -0.00039608    -0.00043661
     47      1      Ca          0.00093124    -0.00019614    -0.00005045
     48      1      Ca         -0.00000050     0.00009976     0.00010896
     49      1      Ca          0.00000701    -0.00004832     0.00026336
     50      1      Ca          0.00020724    -0.00009898     0.00015151
     51      1      Ca          0.00025217     0.00011589    -0.00014919
     52      2      Si          0.00009577    -0.00045559    -0.00004666
     53      2      Si         -0.00040194    -0.00050150     0.00078492
     54      2      Si         -0.00050192     0.00034154     0.00010487
     55      3      O           0.00052112     0.00035820     0.00053302
     56      3      O          -0.00047166     0.00018040    -0.00019199
     57      3      O           0.00031604     0.00016228    -0.00002274
     58      3      O          -0.00017682     0.00036879    -0.00057683
     59      3      O          -0.00019112    -0.00007443    -0.00024022
     60      3      O          -0.00008244     0.00022361    -0.00004292
     61      3      O          -0.00041212    -0.00073084     0.00024086
     62      3      O           0.00013001    -0.00078826    -0.00004260
     63      3      O          -0.00002000     0.00014295    -0.00000110
     64      3      O          -0.00012072    -0.00016135    -0.00025138
     65      3      O          -0.00048819     0.00023680    -0.00012130
     66      3      O           0.00002017    -0.00032053    -0.00035822
     67      3      O           0.00023363     0.00010853     0.00054618
     68      3      O          -0.00027704     0.00011516     0.00023882
     69      3      O          -0.00088248     0.00023680     0.00049952
     70      3      O           0.00058116     0.00074091     0.00120555
     71      1      Ca         -0.00023471     0.00001266     0.00006912
     72      1      Ca          0.00012548     0.00004076     0.00002566
     73      1      Ca         -0.00021694    -0.00007691     0.00004045
     74      1      Ca          0.00017379     0.00025900     0.00032825
     75      2      Si          0.00000429     0.00005588    -0.00023875
     76      2      Si          0.00006569     0.00018560    -0.00022845
     77      2      Si          0.00024231    -0.00009238    -0.00013425
     78      3      O          -0.00077112    -0.00012507    -0.00040825
     79      3      O          -0.00007520    -0.00003345    -0.00001050
     80      3      O           0.00000799    -0.00034042     0.00027552
     81      3      O           0.00016335    -0.00005497     0.00053548
     82      3      O           0.00028220     0.00033809     0.00013693
     83      3      O           0.00018736    -0.00011512     0.00028985
     84      3      O           0.00023208    -0.00010757     0.00003293
     85      3      O          -0.00098392    -0.00017733    -0.00033443
     86      3      O          -0.00009720     0.00009897     0.00015854
     87      3      O           0.00027220     0.00023654     0.00002271
     88      3      O          -0.00018821    -0.00007496     0.00007318
     89      3      O           0.00010140    -0.00002977    -0.00004590
     90      3      O          -0.00036630    -0.00010133    -0.00053963
     91      3      O          -0.00034060     0.00011637    -0.00057899
     92      3      O           0.00080209    -0.00029391    -0.00020729
     93      3      O           0.00096252    -0.00033218    -0.00040197
     94      1      Ca          0.00085076    -0.00010969    -0.00006319
     95      4      H          -0.00284933     0.00008295    -0.00134406
     96      4      H          -0.00163195    -0.00027380     0.00043991
     97      4      H           0.00055196     0.00026202    -0.00003571
     98      4      H           0.00041089     0.00018161     0.00000513
     99      4      H           0.00085961    -0.00025582    -0.00023594
    100      4      H           0.00093217    -0.00026503    -0.00025800
    101      4      H           0.00062814    -0.00060984    -0.00076008
    102      4      H           0.00036231    -0.00008038    -0.00019509
    103      4      H           0.00060992    -0.00049796     0.00048833
    104      4      H           0.00066647     0.00009485    -0.00004652
    105      4      H           0.00007299     0.00025005     0.00006607
    106      4      H          -0.00020759    -0.00045812    -0.00000261
    107      4      H          -0.00034978     0.00035377     0.00007976
    108      4      H          -0.00044003    -0.00025290     0.00008784
    109      4      H          -0.00029083     0.00010264     0.00012775
    110      4      H          -0.00084216     0.00143281     0.00040604
    111      4      H          -0.00261117     0.00001519    -0.00108256
    112      4      H          -0.00135107    -0.00027577     0.00031452
    113      4      H           0.00018528     0.00003234    -0.00012343
    114      4      H           0.00038782    -0.00052333    -0.00011216
    115      4      H           0.00089538    -0.00018681    -0.00027484
    116      4      H           0.00100094    -0.00026510    -0.00029268
    117      4      H           0.00056193    -0.00064042    -0.00082052
    118      4      H           0.00023658     0.00001095    -0.00060101
    119      4      H           0.00033245    -0.00039360     0.00031353
[...]
 flops     5 x    32 x     5          49840384000       0.0%    100.0%      0.0%     
 flops     5 x    13 x    32          52027289600       0.0%    100.0%      0.0%     
 flops    13 x     5 x    32          52027289600       0.0%    100.0%      0.0%     
 flops   104 x    32 x    50          52595712000       0.0%    100.0%      0.0%     
 flops   390 x    32 x    50          53239680000       0.0%    100.0%      0.0%     
 flops    64 x    32 x    62          53512765440       0.0%    100.0%      0.0%     
 flops   313 x    32 x    57          56828580480       0.0%    100.0%      0.0%     
 flops    14 x    32 x     5          57089894400       0.0%    100.0%      0.0%     
 flops     5 x    32 x    14          57089894400       0.0%    100.0%      0.0%     
 flops   421 x    32 x    50          57471552000       0.0%    100.0%      0.0%     
 flops    14 x    13 x    32          59594895360       0.0%    100.0%      0.0%     
 flops    13 x    14 x    32          59594895360       0.0%    100.0%      0.0%     
 flops   336 x    32 x    57          61004482560       0.0%    100.0%      0.0%     
 flops    96 x    32 x    57          64571351040       0.0%    100.0%      0.0%     
 flops    64 x    32 x    50          64733184000       0.0%    100.0%      0.0%     
 flops    14 x    32 x    14          65393879040       0.0%    100.0%      0.0%     
 flops   104 x    32 x    57          69952296960       0.0%    100.0%      0.0%     
 flops   390 x    32 x    57          70808774400       0.0%    100.0%      0.0%     
 flops    96 x    32 x    32          72194457600       0.0%    100.0%      0.0%     
 flops   421 x    32 x    57          76437164160       0.0%    100.0%      0.0%     
 flops   104 x    32 x    32          78210662400       0.0%    100.0%      0.0%     
 flops    64 x    32 x    57          86095134720       0.0%    100.0%      0.0%     
 flops    64 x    32 x    32          96259276800       0.0%    100.0%      0.0%     
 flops   313 x    32 x    32         209037926400       0.0%    100.0%      0.0%     
 flops     5 x    32 x    13         223828633600       0.0%    100.0%      0.0%     
 flops    13 x    32 x     5         223828633600       0.0%    100.0%      0.0%     
 flops   336 x    32 x    32         224398540800       0.0%    100.0%      0.0%     
 flops    13 x    13 x    32         236724167680       0.0%    100.0%      0.0%     
 flops    14 x    32 x    13         256385525760       0.0%    100.0%      0.0%     
 flops    13 x    32 x    14         256385525760       0.0%    100.0%      0.0%     
 flops   390 x    32 x    32         260462592000       0.0%    100.0%      0.0%     
 flops   421 x    32 x    32         281166028800       0.0%    100.0%      0.0%     
 flops    13 x    32 x    13        1005194045440       0.0%    100.0%      0.0%     
 flops inhomo. stacks                846897685920     100.0%      0.0%      0.0%
 flops total                         6.090506E+12      13.9%     86.1%      0.0%
 flops max/rank                    285.870831E+09      15.0%     85.0%      0.0%
 matmuls inhomo. stacks                   1324620     100.0%      0.0%      0.0%
 matmuls total                          423220512       0.3%     99.7%      0.0%
 number of processed stacks              27346572       4.8%     95.2%      0.0%
 average stack size                                     1.0      16.2       0.0
 marketing flops                     6.427394E+12
 -------------------------------------------------------------------------------
 # multiplications                          12719
 max memory usage/rank             534.466560E+06
 # max total images/rank                       13
 # max 3D layers                                1
 # MPI messages exchanged                25132744
 MPI messages size (bytes):
  total size                         1.736943E+12
  min size                           0.000000E+00
  max size                         381.680000E+03
  average size                      69.110758E+03
 MPI breakdown and total messages size (bytes):
             size <=      128            11974767                        0
       128 < size <=     8192              987607               6503296000
      8192 < size <=    32768             1666120              23238860800
     32768 < size <=   131072             5462750             338819744000
    131072 < size <=  4194304             5041500            1367587840000
   4194304 < size <= 16777216                   0                        0
  16777216 < size                               0                        0
 -------------------------------------------------------------------------------

 *** WARNING in dbcsr_mm.F:301 :: Using a non-square number of MPI ranks ***
 *** might lead to poor performance. Used ranks: 52 Suggested: 49 100    ***

 -------------------------------------------------------------------------------
 -                                                                             -
 -                      DBCSR MESSAGE PASSING PERFORMANCE                      -
 -                                                                             -
 -------------------------------------------------------------------------------
 ROUTINE             CALLS      AVE VOLUME [Bytes]
 MP_Bcast              113                     12.
 MP_Allreduce        68495                      9.
 MP_Alltoall         44185                  24170.
 MP_ISend          1146636                  31879.
 MP_IRecv          1108218                  31673.
 -------------------------------------------------------------------------------

 -------------------------------------------------------------------------------
 -                                                                             -
 -                                DBM STATISTICS                               -
 -                                                                             -
 -------------------------------------------------------------------------------
    M  x    N  x    K                                          COUNT     PERCENT
 -------------------------------------------------------------------------------

 -------------------------------------------------------------------------------
 -                                                                             -
 -                                GRID STATISTICS                              -
 -                                                                             -
 -------------------------------------------------------------------------------
 LP    KERNEL             BACKEND                              COUNT     PERCENT
 3     collocate general  CPU                               74669140      22.39%
 4     collocate general  CPU                               71550045      21.46%
 3     integrate general  CPU                               70736270      21.21%
 4     integrate general  CPU                               67513484      20.25%
 2     collocate general  CPU                               20339908       6.10%
 2     integrate general  CPU                               19192341       5.76%
 6     integrate general  CPU                                4107429       1.23%
 7     integrate general  CPU                                3935650       1.18%
 5     integrate general  CPU                                1118882       0.34%
 0     collocate general  CPU                                 287040       0.09%
 -------------------------------------------------------------------------------

 MEMORY| Estimated peak process memory [MiB]                                 510

 -------------------------------------------------------------------------------
 -                                                                             -
 -                         MESSAGE PASSING PERFORMANCE                         -
 -                                                                             -
 -------------------------------------------------------------------------------

 ROUTINE             CALLS      AVE VOLUME [Bytes]
 MP_Group                4
 MP_Bcast             4981                 153556.
 MP_Allreduce        17320                    375.
 MP_Sync                92
 MP_Alltoall         16853                2696121.
 MP_SendRecv        116433                  64678.
 MP_ISendRecv       108324                  68832.
 MP_Wait            210052
 MP_comm_split          49
 MP_ISend            92752                 228839.
 MP_IRecv            92752                 228839.
 -------------------------------------------------------------------------------


 -------------------------------------------------------------------------------
 -                                                                             -
 -                           R E F E R E N C E S                               -
 -                                                                             -
 -------------------------------------------------------------------------------
 
 CP2K version 2024.3, the CP2K developers group (2024).
 CP2K is freely available from https://www.cp2k.org/ .
 
 T. D. Kuehne, M. Iannuzzi, M. Del Ben, V. V. Rybkin, P. Seewald, F. Stein, T. 
 Laino, R. Z. Khaliullin, O. Schuett, F. Schiffmann, D. Golze, J. Wilhelm, S. 
 Chulkov, M. H. Bani-Hashemian, V. Weber, U. Borstnik, M. Taillefumier, A. S. 
 Jakobovits, A. Lazzaro, H. Pabst, T. Mueller, R. Schade, M. Guidon, S. 
 Andermatt, N. Holmberg, G. K. Schenter, A. Hehn, A. Bussy, F. Belleflamme, G. 
 Tabacchi, A. Gloess, M. Lass, I. Bethune, C. J. Mundy, C. Plessl, M. Watkins, 
 J. VandeVondele, M. Krack, J. Hutter.
 J. Chem. Phys. 152, 194103 (2020).
 CP2K: An electronic structure and molecular dynamics software package - 
 Quickstep: Efficient and accurate electronic structure calculations.
 https://doi.org/10.1063/5.0007045

 L. Goerigk, A. Hansen, C. Bauer, S. Ehrlich, A. Najibi, S. Grimme.
 Phys. Chem. Chem. Phys. 19, 32184-32215 (2017).
 A look at the density functional theory zoo with the advanced GMTKN55 database 
 for general main group thermochemistry, kinetics and noncovalent interactions.
 https://doi.org/10.1039/C7CP04913G

 O. Schuett, P. Messmer, J. Hutter, J. VandeVondele.
 Electronic Structure Calculations on Graphics Processing Units, 173-190 (2016).
 GPU-Accelerated Sparse Matrix-Matrix Multiplication for Linear Scaling Density 
 Functional Theory.
 https://doi.org/10.1002/9781118670712.ch8

 A. Heinecke, G. Henry, M. Hutchinson, H. Pabst.
 Proceedings of Intl. Supercomputing Conference, 981-991 (2016).
 LIBXSMM: Accelerating Small Matrix Multiplications by Runtime Code Generation.
 https://doi.org/10.1109/SC.2016.83

 J. Hutter, M. Iannuzzi, F. Schiffmann, J. VandeVondele.
 WIREs Comput Mol Sci. 4, 15-25 (2014).
 CP2K: atomistic simulations of condensed matter systems.
 https://doi.org/10.1002/wcms.1159

 U. Borstnik, J. VandeVondele, V. Weber, J. Hutter.
 Parallel Comput. 40, 47-58 (2014).
 Sparse matrix multiplication: The distributed block-compressed sparse row 
 library.
 https://doi.org/10.1016/j.parco.2014.03.012

 A. Marek, V. Blum, R. Johanni, V. Havu, B. Lang, T. Auckenthaler, A. Heinecke, 
 H. Bungartz, H. Lederer.
 J. Phys. Condens. Matter 26, 213201 (2014).
 The ELPA library: scalable parallel eigenvalue solutions for electronic 
 structure theory and computational science.
 https://doi.org/10.1088/0953-8984/26/21/213201

 S. Grimme, S. Ehrlich, L. Goerigk.
 J. Comput. Chem. 32, 1456 (2011).
 Effect of the damping function in dispersion corrected density functional 
 theory.
 https://doi.org/10.1002/jcc.21759

 S. Grimme, J. Antony, S. Ehrlich, H. Krieg.
 J. Chem. Phys. 132, 154104 (2010).
 A consistent and accurate ab initio parametrization of density functional 
 dispersion correction (DFT-D) for the 94 elements H-Pu.
 https://doi.org/10.1063/1.3382344

 J. P. Perdew, A. Ruzsinszky, G. I. Csonka, O. A. Vydrov, G. E. Scuseria, L. A. 
 Constantin, X. Zhou, K. Burke.
 Phys. Rev. Lett. 100, 136406-136409 (2008).
 Restoring the Density-Gradient Expansion for Exchange in Solids and Surfaces.
 https://doi.org/10.1103/PhysRevLett.100.136406

 J. VandeVondele, J. Hutter.
 J. Chem. Phys. 127, 114105 (2007).
 Gaussian basis sets for accurate calculations on molecular systems in gas and 
 condensed phases.
 https://doi.org/10.1063/1.2770708

 T. D. Kühne, M. Krack, F. R. Mohamed, M. Parrinello.
 Phys. Rev. Lett. 98, 066401 (2007).
 Efficient and accurate Car-Parrinello-like approach to Born-Oppenheimer 
 molecular dynamics.
 https://doi.org/10.1103/PhysRevLett.98.066401

 J. VandeVondele, M. Krack, F. Mohamed, M. Parrinello, T. Chassaing, J. Hutter.
 Comput. Phys. Commun. 167, 103-128 (2005).
 QUICKSTEP: Fast and accurate density functional calculations using a mixed 
 Gaussian and plane waves approach.
 https://doi.org/10.1016/j.cpc.2004.12.014

 M. Krack.
 Theor. Chem. Acc. 114, 145-152 (2005).
 Pseudopotentials for H to Kr optimized for gradient-corrected 
 exchange-correlation functionals.
 https://doi.org/10.1007/s00214-005-0655-y

 M. Frigo, S. G. Johnson.
 Proc. IEEE 93, 216-231 (2005).
 The design and implementation of FFTW3.
 https://doi.org/10.1109/JPROC.2004.840301

 J. Kolafa.
 J. Comput. Chem. 25, 335-342 (2004).
 Time-reversible always stable predictor-corrector method for molecular dynamics 
 of polarizable molecules.
 https://doi.org/10.1002/jcc.10385

 J. VandeVondele, J. Hutter.
 J. Chem. Phys. 118, 4365-4369 (2003).
 An efficient orbital transformation method for electronic structure 
 calculations.
 https://doi.org/10.1063/1.1543154

 C. Hartwigsen, S. Goedecker, J. Hutter.
 Phys. Rev. B 58, 3641-3662 (1998).
 Relativistic separable dual-space Gaussian pseudopotentials from H to Rn.
 https://doi.org/10.1103/PhysRevB.58.3641

 G. Lippert, J. Hutter, M. Parrinello.
 Mol. Phys. 92, 477-487 (1997).
 A hybrid Gaussian and plane wave density functional scheme.
 https://doi.org/10.1080/002689797170220

 S. Goedecker, M. Teter, J. Hutter.
 Phys. Rev. B 54, 1703-1710 (1996).
 Separable dual-space Gaussian pseudopotentials.
 https://doi.org/10.1103/PhysRevB.54.1703

 J. P. Perdew, K. Burke, M. Ernzerhof.
 Phys. Rev. Lett. 77, 3865-3868 (1996).
 Generalized gradient approximation made simple.
 https://doi.org/10.1103/PhysRevLett.77.3865


 -------------------------------------------------------------------------------
 -                                                                             -
 -                                T I M I N G                                  -
 -                                                                             -
 -------------------------------------------------------------------------------
 SUBROUTINE                       CALLS  ASD         SELF TIME        TOTAL TIME
                                MAXIMUM       AVERAGE  MAXIMUM  AVERAGE  MAXIMUM
 CP2K                                 1  1.0    0.012    0.015 1348.906 1348.907
 cp_geo_opt                           1  2.0    0.000    0.000 1348.560 1348.562
 geoopt_bfgs                          1  3.0    0.014    0.019 1348.560 1348.561
 cp_eval_at                          40  4.0    0.007    0.025 1347.086 1347.103
 qs_forces                           39  5.0    0.009    0.010 1324.704 1324.706
 qs_energies                         40  6.0    0.004    0.004 1242.465 1242.485
 scf_env_do_scf                      40  7.0    0.002    0.005 1188.504 1188.651
 scf_env_do_scf_inner_loop          669  8.0    0.017    0.081 1145.152 1145.335
 rebuild_ks_matrix                  708  9.8    0.003    0.004  713.209  713.883
 qs_ks_build_kohn_sham_matrix       708 10.8    0.132    0.149  713.205  713.880
 qs_ks_update_qs_env                711  9.0    0.006    0.008  636.979  637.448
 sum_up_and_integrate               708 11.8    0.019    0.039  531.640  531.961
 integrate_v_rspace                 708 12.8    0.033    0.059  531.100  531.510
 qs_rho_update_rho_low              709  9.0    0.004    0.005  524.746  525.131
 calculate_rho_elec                 709 10.0    0.367    0.453  524.742  525.128
 grid_collocate_task_list           709 11.0  424.230  438.434  424.230  438.434
 grid_integrate_task_list           708 13.8  423.442  437.570  423.442  437.570
 fft_wrap_pw1pw2                  12081 14.2    0.516    0.580  154.912  162.124
 fft_wrap_pw1pw2_250               7830 15.6    7.560    7.876  144.250  150.730
 qs_vxc_create                      708 11.8    0.037    0.048  127.616  130.134
 xc_vxc_pw_create                   708 12.8    3.161    3.763  127.579  130.103
 fft3d_ps                         12081 16.2   58.611   65.381  120.418  129.614
 density_rs2pw                      709 11.0    0.070    0.085   97.995  117.321
 xc_pw_derive                      4248 14.8    0.115    0.142   92.894  101.706
 transfer_rs2pw                    2876 12.0    0.052    0.072   66.621   85.225
 potential_pw2rs                    708 13.8    0.090    0.104   81.937   82.214
 mp_waitany                       92752 15.2   60.408   79.892   60.408   79.892
 qs_ks_update_qs_env_forces          39  6.0    0.000    0.000   76.574   77.006
 transfer_rs2pw_250                 749 12.9   10.204   12.626   57.084   75.623
 dbcsr_multiply_generic           12719 13.9    0.709    0.844   73.520   74.737
 mp_alltoall_z22v                 12081 18.2   44.140   71.226   44.140   71.226
 transfer_pw2rs                    2871 14.8    0.050    0.067   67.029   67.171
 xc_pw_divergence                   708 13.8    0.059    0.070   60.991   66.777
 xc_rho_set_and_dset_create         708 13.8    1.589    1.950   60.893   62.216
 qs_scf_new_mos                     669  9.0    0.004    0.006   55.518   56.054
 qs_scf_loop_do_ot                  669 10.0    0.004    0.006   55.515   56.050
 transfer_pw2rs_250                 747 15.6   26.204   27.140   53.244   54.626
 ot_scf_mini                        669 11.0    0.020    0.022   52.008   52.540
 mp_alltoall_d11v                  9943 15.0   26.242   47.079   26.242   47.079
 rs_gather_matrices                 708 13.8    0.164    0.293   25.626   46.584
 yz_to_x                           4290 17.3    6.106    7.571   29.076   44.856
 init_scf_loop                       42  8.0    0.001    0.001   43.034   43.037
 init_scf_run                        40  7.0    0.001    0.002   36.356   36.360
 scf_env_initial_rho_setup           40  8.0    0.000    0.001   36.355   36.359
 multiply_cannon                  12719 14.9    1.463    1.590   34.418   36.253
 ot_mini                            669 12.0    0.005    0.005   35.092   35.642
 wfi_extrapolate                     40  9.0    0.004    0.005   35.343   35.343
 x_to_yz                           4957 17.4    8.820   10.310   29.359   34.784
 mp_waitall_1                   1745332 17.9   21.460   31.366   21.460   31.366
 make_m2s                         25438 14.9    0.596    0.638   28.381   29.335
 multiply_cannon_loop             12719 15.9    1.835    2.394   27.328   29.232
 qs_ot_get_derivative               669 13.0    0.006    0.007   27.911   28.445
 build_core_hamiltonian_matrix_      39  6.0    0.002    0.002   22.818   26.990
 -------------------------------------------------------------------------------

 The number of warnings for this run is : 1
 
 -------------------------------------------------------------------------------
  **** **** ******  **  PROGRAM ENDED AT                 2025-01-16 08:28:09.871
 ***** ** ***  *** **   PROGRAM RAN ON                               ubuntu-GPU2
 **    ****   ******    PROGRAM RAN BY                                       zkm
 ***** **    ** ** **   PROGRAM PROCESS ID                               3481719
  **** **  *******  **  PROGRAM STOPPED IN /home/zkm/CP2K/Generate_dataset/Jenni
                                           te/Elastic/elastic_cp2k/example/epsil
                                           onxz/pos
