     138
 i =        1, E =     -1761.2515717000
 Ca        -0.7423470008        1.3818552832        3.6798089057
 Ca         2.5222338347        4.5782871370        3.2895515805
 Ca        -1.8746048105        4.8555179355        3.9478022725
 Ca         3.4513018323        0.9436649019        3.5245774701
 Si         5.9563919093        5.8084523986        1.9713330497
 Si         6.7202400138        0.6517435426        3.7977813379
 Si         5.5308341216        3.4921601491        3.9335191488
  O         4.9421579691       13.0284012792        2.5995242196
  O         0.3499800564        5.5518908614        3.5372636709
  O         5.4926714527       -0.2824995241        4.3151644977
  O         7.8610381608        0.8564757679        4.9377554725
  O         7.4263304451        0.1833383880        2.3890155730
  O         5.2576146305        4.4582026170        2.6212855152
  O         6.0368794498        2.0615858672        3.3023578833
  O         5.9632326050        5.6818650251        0.3636950819
  O         4.0185862293        3.1851257803        4.4465958834
  O         6.6261161365        4.0996396854        4.9600319945
  O         1.4771774645        2.3157258861        3.3125446563
  O        -1.3822960303        3.1866278424        2.3923189126
  O         4.0033143933        0.8347127247        1.2168043616
  O         4.4934281584       -0.9700611076        9.3180580620
  O         8.2999759222       -1.7192520973        9.4485338794
  O         6.1520976717        1.0008381590        9.3998496822
 Ca         7.6912973891        2.5974361198        6.5893209416
 Ca         4.4469451437       -0.6000793761        6.9439819703
 Ca         8.7693043533       -0.8243938809        6.4297088655
 Ca         3.4842775772        2.9795500290        6.6135614014
 Si         1.0468052759       -1.8041958932        8.3222577627
 Si         0.2845796376        3.4189960710        6.3966476036
 Si         1.4009754838        0.5153375717        6.3563874769
  O        -2.8626311730        4.6518469963        7.6886674354
  O         6.5708720979       -1.5739650749        6.6269519313
  O         1.4936279047        4.3227708916        5.7896855456
  O        -0.9320085723        3.1511505569        5.3701863150
  O        -0.2710147772        3.9905060537        7.8312358010
  O         1.5712102493       -0.3346800291        7.7631275932
  O         1.0234633588        2.0323115861        6.9204101290
  O         1.0534648178       -1.7899165979        9.9329374373
  O         2.9091131199        0.6986562956        5.7837156490
  O         0.2650126170       -0.0758997659        5.3694988543
  O         5.4960747226        1.6329102671        6.9081514324
  O        -1.7216644755        1.0136918228        7.9018584058
  O         3.5050305597        3.7913378720        8.8277908301
  O         2.5579647427        5.2105687838        1.0535468927
  O        -1.3281009665        5.5682309556        0.7111162347
  O         0.9843618334        3.0573423831        0.7165638765
 Ca         9.2348579777        3.3455715786        0.0224135021
 Ca        -3.2141481448        8.2519785064        3.6807715935
 Ca         0.0509980217       11.4494281188        3.2915867791
 Ca        -4.3454666980       11.7254886235        3.9477712071
 Ca         0.9784011829        7.8144943880        3.5194162825
 Si         3.4862868703       12.6774341030        1.9697530369
 Si         4.2476040278        7.5208918320        3.7992046488
 Si         3.0589320667       10.3618858176        3.9333389066
  O         7.4124578701        6.1597247491        2.6005611162
  O        -2.1213531993       12.4210282815        3.5388521034
  O         3.0194645128        6.5867822602        4.3169242740
  O         5.3879957616        7.7263731586        4.9391465959
  O         4.9529516252        7.0521977322        2.3905779588
  O         2.7874225895       11.3277741421        2.6208935251
  O         3.5642715802        8.9304669117        3.3033051511
  O         3.4945463630       12.5480709964        0.3618051928
  O         1.5470886545       10.0541151255        4.4465334923
  O         4.1537395206       10.9686412212        4.9606878393
  O        -0.9937038258        9.1849554595        3.3116003850
  O        -3.8529067161       10.0566310430        2.3925885126
  O         1.5357106131        7.7064296463        1.2082169616
  O         2.0033924316        5.8793040292        9.2618517560
  O         5.8275919074        5.1489768138        9.4487525218
  O         3.6569711602        7.8375736039        9.4112636151
 Ca         5.2215701188        9.4676049074        6.5901553693
 Ca         1.9895680249        6.2754441329        6.9077645315
 Ca         6.3020216808        6.0447307951        6.4315542135
 Ca         1.0132682582        9.8509780895        6.6140388274
 Si        -1.4235314842        5.0652464637        8.3219448029
 Si        -2.1858521462       10.2887631527        6.3964055604
 Si        -1.0709448290        7.3845073854        6.3568322350
  O        -5.3340650758       11.5222818108        7.6878183869
  O         4.1053040234        5.2894907933        6.6254253633
  O        -0.9774342484       11.1964337940        5.7931434418
  O        -3.4025967156       10.0209261223        5.3701647342
  O        -2.7404373285       10.8616018505        7.8318734938
  O        -0.9023710115        6.5349792011        7.7626203190
  O        -1.4474472855        8.9024679573        6.9202742528
  O        -1.4161555531        5.0789540492        9.9332972072
  O         0.4351283408        7.5706835776        5.7801865838
  O        -2.2066925357        6.7939237156        5.3690225717
  O         3.0263757614        8.5046459087        6.9102211726
  O        -4.1940295655        7.8837501044        7.9029638123
  O         1.0334024155       10.6641281418        8.8289884665
  O         0.0864681538       12.0797509678        1.0540170811
  O        -3.7990548646       12.4364339314        0.7081059946
  O        -1.4860049601        9.9263147644        0.7160202851
 Ca         6.7609183176       10.2103994504        0.0237977295
  H         3.1712359914        0.8664419702        0.5953059322
  H         4.6497176500        1.3589522674        0.6572045973
  H         5.1720201912       -0.2286841836        9.5201295055
  H         5.0070462191       -1.8439973033        9.2832850443
  H         8.1250787173       -2.5829589875        9.9810864793
  H         9.0961474858       -1.9770346315        8.8723058045
  H         5.6892602517        1.8248596109        9.9127052042
  H         6.0134555767        1.2187573164        8.4239433319
  H         3.8892750994        3.2774684726        9.6431466828
  H         4.2443657111        4.4505321006        8.6867621945
  H         1.9474784118        4.5314064606        0.6479436487
  H         2.1155781650        6.1098019541        0.9707167834
  H        -2.0526510297        5.8391816810        1.3506293608
  H        -1.0316073868        6.4530863856        0.3055206044
  H         1.0522609661        2.8072925200        1.6848145310
  H         1.4009295301        2.1935462841        0.2644843623
  H         0.6994628677        7.7364362360        0.5889527653
  H         2.1778964202        8.2246430507        0.6412261431
  H         2.6734616160        6.6192389646        9.4897442111
  H         2.5161509033        5.0045010743        9.2405948142
  H         5.6504574328        4.2865429126        9.9833355359
  H         6.6241934244        4.8897381054        8.8741573528
  H         3.2103842032        8.6723275602        9.9221711603
  H         3.5428166420        8.0713483082        8.4371616956
  H         1.4258566505       10.1483400323        9.6405871709
  H         1.7722731353       11.3221947338        8.6816949263
  H        -0.5238120000       11.4008571344        0.6480553981
  H        -0.3572183815       12.9786737650        0.9745054938
  H        -4.5238019040       12.7070361686        1.3464759331
  H        -3.5034779643       13.3210133108        0.3011302326
  H        -1.4180311696        9.6764146182        1.6841793699
  H        -1.0704697227        9.0619813958        0.2633371470
  H         0.5619878442        5.3507385713        4.4825297740
  H         1.3448245805        2.7060717322        4.2059683146
  H        -0.5323780433        3.6833525440        2.3937868553
  H         6.3962535731       -1.3337968348        5.6818647093
  H         5.6953292630        1.2392570232        6.0270042379
  H        -0.8028205910        1.3567761110        7.9316297178
  H        -1.9083075255       12.2227276783        4.4845266938
  H        -1.1256007770        9.5730098126        4.2059167342
  H        -3.0033201244       10.5539981874        2.3919286192
  H         3.9410745313        5.5189879463        5.6765591426
  H         3.2299801589        8.1256631686        6.0239506026
  H        -3.2751194251        8.2263750874        7.9363758839
     138
 i =        2, E =     -1761.2524226060
 Ca        -0.7426272463        1.3792021359        3.6796172138
 Ca         2.5213027299        4.5774563008        3.2863505290
 Ca        -1.8738830121        4.8570439958        3.9470951944
 Ca         3.4501883032        0.9423183706        3.5246411658
 Si         5.9555440918        5.8092781550        1.9714860972
 Si         6.7188401185        0.6537825527        3.7963773884
 Si         5.5285275848        3.4926994328        3.9347045213
  O         4.9423070302       13.0279080861        2.5960385232
  O         0.3555974977        5.5492320390        3.5375059534
  O         5.4909188250       -0.2806560135        4.3136625422
  O         7.8554213243        0.8559727984        4.9411485519
  O         7.4289858258        0.1861920720        2.3892313412
  O         5.2615681198        4.4572729616        2.6205568249
  O         6.0310422071        2.0620984642        3.3009055977
  O         5.9634071681        5.6839783278        0.3639212056
  O         4.0156751132        3.1872284019        4.4486972165
  O         6.6226115301        4.0986524739        4.9637268514
  O         1.4839179971        2.3147463389        3.3132078656
  O        -1.3783081589        3.1877843610        2.3937641950
  O         3.9930300429        0.8357296594        1.2156808549
  O         4.4979039796       -0.9677863655        9.3147090594
  O         8.3075806498       -1.7193300820        9.4484416523
  O         6.1609330691        0.9978192571        9.4001055491
 Ca         7.6925862665        2.5970314369        6.5906694494
 Ca         4.4430339920       -0.6012161511        6.9419756784
 Ca         8.7719014742       -0.8237773012        6.4300541700
 Ca         3.4817103780        2.9790150566        6.6135931648
 Si         1.0518962910       -1.8026824468        8.3244652557
 Si         0.2831726160        3.4196809830        6.3961548530
 Si         1.4008165288        0.5147844806        6.3552836389
  O        -2.8571117961        4.6501872817        7.6922165838
  O         6.5704102982       -1.5745323536        6.6274233961
  O         1.4915900939        4.3229897549        5.7871077587
  O        -0.9307251037        3.1503204734        5.3661730985
  O        -0.2701664403        3.9884806209        7.8322847981
  O         1.5724598678       -0.3328695010        7.7625869791
  O         1.0235095026        2.0324334393        6.9170260764
  O         1.0622151880       -1.7900361761        9.9345896918
  O         2.9090123879        0.7012231494        5.7847863466
  O         0.2672640085       -0.0778333902        5.3673529441
  O         5.4962753695        1.6323246360        6.9091279046
  O        -1.7213864679        1.0168986675        7.9052647780
  O         3.5049647068        3.7893577219        8.8244805340
  O         2.5587760745        5.2114170641        1.0540380627
  O        -1.3335051805        5.5705022907        0.7078564725
  O         0.9708026215        3.0564394546        0.7151388115
 Ca         9.2243531986        3.3450725844        0.0241885185
 Ca        -3.2142573541        8.2490099151        3.6805843955
 Ca         0.0498137456       11.4485205023        3.2884019171
 Ca        -4.3447759780       11.7269114821        3.9472779078
 Ca         0.9776705459        7.8131944893        3.5195490161
 Si         3.4855608090       12.6784031349        1.9696024827
 Si         4.2460291717        7.5231705256        3.7973869036
 Si         3.0563503711       10.3627247500        3.9347026205
  O         7.4123444543        6.1591207883        2.5972459362
  O        -2.1160031549       12.4182412417        3.5393094441
  O         3.0182542152        6.5879526474        4.3146898038
  O         5.3818060400        7.7258028044        4.9425269880
  O         4.9564690005        7.0557669561        2.3907043733
  O         2.7914847851       11.3268513526        2.6200053749
  O         3.5572363928        8.9309033359        3.3019820997
  O         3.4960745856       12.5496463687        0.3616937684
  O         1.5437628651       10.0564656605        4.4485976101
  O         4.1504649487       10.9677829712        4.9641616804
  O        -0.9874789265        9.1839255119        3.3122733832
  O        -3.8488480479       10.0576043692        2.3938119247
  O         1.5266443391        7.7075585043        1.2074523008
  O         2.0082931204        5.8796604317        9.2581733834
  O         5.8357023270        5.1490319514        9.4487809051
  O         3.6625643704        7.8325475860        9.4098393708
 Ca         5.2225830777        9.4676437525        6.5907835465
 Ca         1.9853336304        6.2747139931        6.9069859500
 Ca         6.3040870298        6.0454795731        6.4317408454
 Ca         1.0106659653        9.8502187469        6.6139211475
 Si        -1.4181332131        5.0668114730        8.3239549674
 Si        -2.1872940990       10.2897685841        6.3960193324
 Si        -1.0712411168        7.3843038245        6.3554086682
  O        -5.3285869807       11.5199883872        7.6916020234
  O         4.1042971512        5.2899662522        6.6258241026
  O        -0.9792805127       11.1959930778        5.7899787572
  O        -3.4015856268       10.0198640136        5.3667413103
  O        -2.7398051769       10.8598053884        7.8328959671
  O        -0.9014337934        6.5372803849        7.7620154249
  O        -1.4482157715        8.9025548221        6.9170313264
  O        -1.4082235329        5.0793443994        9.9347710175
  O         0.4347487796        7.5731469072        5.7806248703
  O        -2.2052411050        6.7921151112        5.3673293385
  O         3.0276459490        8.5046850862        6.9106361621
  O        -4.1941529425        7.8868679994        7.9067937208
  O         1.0333280160       10.6626260391        8.8261839929
  O         0.0874849659       12.0808262803        1.0547200823
  O        -3.8052940732       12.4384221837        0.7049970227
  O        -1.5014841943        9.9251421668        0.7144230569
 Ca         6.7487869505       10.2097540736        0.0257400868
  H         3.1625495608        0.8637208842        0.5964156128
  H         4.6409985534        1.3594737220        0.6556878893
  H         5.1798185620       -0.2284030027        9.5184716551
  H         5.0116116369       -1.8412778016        9.2823244925
  H         8.1263622830       -2.5807906740        9.9830318668
  H         9.1009744383       -1.9718444025        8.8674860282
  H         5.7025112384        1.8235258320        9.9180545863
  H         6.0212051590        1.2134425893        8.4245093534
  H         3.8970413235        3.2840760268        9.6388056561
  H         4.2491391450        4.4455991479        8.6954167911
  H         1.9495585047        4.5276559923        0.6507640023
  H         2.1166275155        6.1105185559        0.9720168772
  H        -2.0541545119        5.8353010701        1.3526891486
  H        -1.0315518679        6.4529000183        0.3014349323
  H         1.0520851299        2.8105987297        1.6829107168
  H         1.3964600889        2.1946967951        0.2650198998
  H         0.6917108537        7.7338307882        0.5906982755
  H         2.1699639692        8.2247112148        0.6391871271
  H         2.6825617467        6.6172234412        9.4875374920
  H         2.5225584078        5.0065977166        9.2402923080
  H         5.6521650381        4.2886343302        9.9852224379
  H         6.6292424441        4.8947455199        8.8689766855
  H         3.2204308100        8.6689709260        9.9254978014
  H         3.5475451018        8.0657344031        8.4365603087
  H         1.4329146282       10.1545480819        9.6366105456
  H         1.7776649239       11.3170708006        8.6906362573
  H        -0.5214912561       11.3971533174        0.6509690707
  H        -0.3562866043       12.9793983366        0.9755600735
  H        -4.5254448600       12.7037689268        1.3495976926
  H        -3.5031309722       13.3209280440        0.2985867312
  H        -1.4182791146        9.6799192430        1.6821082036
  H        -1.0744611869        9.0637345230        0.2645189179
  H         0.5643049622        5.3504950567        4.4839134941
  H         1.3460167626        2.7047087331        4.2059233338
  H        -0.5286571879        3.6846944891        2.3896585965
  H         6.3951265360       -1.3347181713        5.6824150535
  H         5.6945236770        1.2402214729        6.0268391207
  H        -0.8009639298        1.3579054091        7.9278777806
  H        -1.9059517310       12.2224513759        4.4861075984
  H        -1.1240616406        9.5717321476        4.2059595659
  H        -2.9995656281       10.5551555502        2.3883462997
  H         3.9397000302        5.5182162771        5.6767708521
  H         3.2288491495        8.1264886832        6.0233408999
  H        -3.2736361363        8.2276694919        7.9325812299
     138
 i =        3, E =     -1761.2529208757
 Ca        -0.7423928195        1.3789090956        3.6789527394
 Ca         2.5206470393        4.5768914910        3.2850824686
 Ca        -1.8724079449        4.8563555211        3.9464538211
 Ca         3.4510662305        0.9414336700        3.5243270258
 Si         5.9556909839        5.8102057963        1.9718719856
 Si         6.7155448027        0.6553212885        3.7950852379
 Si         5.5262075483        3.4942753505        3.9353291540
  O         4.9433129229       13.0267457787        2.5946232922
  O         0.3565622153        5.5490321684        3.5384081538
  O         5.4902316083       -0.2826245743        4.3117090471
  O         7.8496817992        0.8575070387        4.9422025612
  O         7.4296215634        0.1864551709        2.3899203255
  O         5.2644322060        4.4572227923        2.6191813743
  O         6.0224998020        2.0619926963        3.3001324725
  O         5.9704508311        5.6855062400        0.3644076730
  O         4.0125907338        3.1899459114        4.4484515421
  O         6.6200322213        4.0981172022        4.9662774620
  O         1.4876756396        2.3165466629        3.3121173267
  O        -1.3758180520        3.1909446133        2.3956801189
  O         3.9811900488        0.8375933795        1.2159392495
  O         4.5048654347       -0.9640858448        9.3128996004
  O         8.3099250328       -1.7205162814        9.4473236409
  O         6.1657687141        0.9948316567        9.4010284602
 Ca         7.6928648046        2.5970895520        6.5924055620
 Ca         4.4413216125       -0.6021044423        6.9396493914
 Ca         8.7715976548       -0.8239418765        6.4320596021
 Ca         3.4796912008        2.9798240907        6.6138083902
 Si         1.0554866019       -1.8027916507        8.3258190154
 Si         0.2832938235        3.4196732470        6.3951279484
 Si         1.4022034534        0.5150761978        6.3548077027
  O        -2.8540689914        4.6519994093        7.6928664425
  O         6.5709225966       -1.5740829638        6.6276818763
  O         1.4906919556        4.3239868743        5.7860633131
  O        -0.9312123682        3.1495847480        5.3655186782
  O        -0.2676805917        3.9895825277        7.8311354325
  O         1.5726237749       -0.3325683049        7.7617844128
  O         1.0222309685        2.0316856287        6.9168497631
  O         1.0601647630       -1.7900994409        9.9352700779
  O         2.9098189011        0.7006545709        5.7837211366
  O         0.2709036320       -0.0795820270        5.3661899647
  O         5.4976311293        1.6310525354        6.9119564075
  O        -1.7214652961        1.0165197658        7.9044974280
  O         3.5103935970        3.7918687276        8.8278404688
  O         2.5588929650        5.2099614350        1.0560677336
  O        -1.3363606825        5.5706350318        0.7050618471
  O         0.9666634552        3.0588455782        0.7146001573
 Ca         9.2241952309        3.3427953309        0.0262382295
 Ca        -3.2141973842        8.2484429856        3.6798240322
 Ca         0.0488901888       11.4481169888        3.2872091091
 Ca        -4.3434537063       11.7261958887        3.9465035716
 Ca         0.9791096926        7.8122318273        3.5190895074
 Si         3.4859905224       12.6790283497        1.9697168581
 Si         4.2426470537        7.5248288349        3.7961141182
 Si         3.0537365782       10.3644666469        3.9353997277
  O         7.4131310634        6.1575198411        2.5958850481
  O        -2.1151258175       12.4177413797        3.5404013272
  O         3.0175450073        6.5858635624        4.3120938991
  O         5.3763081828        7.7276855973        4.9431670065
  O         4.9574886382        7.0568788391        2.3914266466
  O         2.7940332008       11.3266918850        2.6185450195
  O         3.5473577678        8.9303967908        3.3016451719
  O         3.5036235202       12.5509076563        0.3618396266
  O         1.5402231732       10.0598457922        4.4484777102
  O         4.1481049145       10.9671907497        4.9664295092
  O        -0.9840507650        9.1856422841        3.3112656878
  O        -3.8466428972       10.0605895640        2.3959022401
  O         1.5162254821        7.7089274572        1.2086772057
  O         2.0124372553        5.8796799605        9.2558687218
  O         5.8387168635        5.1477087521        9.4477680415
  O         3.6684785407        7.8309571202        9.4092616990
 Ca         5.2226578149        9.4677082925        6.5920453631
 Ca         1.9832241452        6.2737703976        6.9058385300
 Ca         6.3032703511        6.0455610023        6.4337516361
 Ca         1.0086075861        9.8509936152        6.6142147335
 Si        -1.4146848601        5.0671513065        8.3252697588
 Si        -2.1872717523       10.2894674687        6.3948848530
 Si        -1.0704442064        7.3845624280        6.3547022941
  O        -5.3254162708       11.5217627936        7.6924015754
  O         4.1045497417        5.2907893841        6.6258686173
  O        -0.9801177785       11.1965006946        5.7890886782
  O        -3.4021640250       10.0195806750        5.3657678378
  O        -2.7369124361       10.8608398063        7.8316411958
  O        -0.9006270160        6.5378514029        7.7611330918
  O        -1.4490758187        8.9018511466        6.9168263401
  O        -1.4099399147        5.0796842335        9.9354216041
  O         0.4349900494        7.5726361394        5.7795639897
  O        -2.2028386656        6.7906288745        5.3662750625
  O         3.0284111803        8.5036114795        6.9125760565
  O        -4.1946490577        7.8862778791        7.9057671566
  O         1.0383127311       10.6649520228        8.8290244142
  O         0.0877246454       12.0793718301        1.0567699703
  O        -3.8087620755       12.4384426810        0.7029223961
  O        -1.5060019158        9.9277750199        0.7138716399
 Ca         6.7467540003       10.2076026085        0.0279940171
  H         3.1501324185        0.8609164372        0.5958859171
  H         4.6295195065        1.3599901461        0.6546902525
  H         5.1889875848       -0.2273710430        9.5176433858
  H         5.0161909277       -1.8383095043        9.2809723484
  H         8.1326241440       -2.5806627251        9.9840976717
  H         9.1052917553       -1.9682700969        8.8661190754
  H         5.7132453188        1.8227171118        9.9204015330
  H         6.0294667580        1.2088899275        8.4249638719
  H         3.9015320927        3.2806851756        9.6390339142
  H         4.2555544463        4.4463370230        8.6957902717
  H         1.9499366671        4.5256122498        0.6522373613
  H         2.1161265944        6.1086258675        0.9723248132
  H        -2.0543645592        5.8349529011        1.3524572926
  H        -1.0334151359        6.4525297810        0.2995484498
  H         1.0492821152        2.8132772605        1.6815908948
  H         1.3911774758        2.1974659683        0.2647288903
  H         0.6808729336        7.7311239028        0.5911631000
  H         2.1592209352        8.2243111613        0.6378854308
  H         2.6911137944        6.6154700921        9.4846393537
  H         2.5278624861        5.0080462211        9.2393002593
  H         5.6586528391        4.2887090334        9.9863945117
  H         6.6339854274        4.8984320365        8.8670686901
  H         3.2269100268        8.6660545698        9.9265657754
  H         3.5523306825        8.0601452698        8.4353151929
  H         1.4363336403       10.1514827676        9.6368493415
  H         1.7842008997       11.3173654921        8.6919319888
  H        -0.5210832213       11.3951904824        0.6524199505
  H        -0.3569674960       12.9773761551        0.9756192226
  H        -4.5260597102       12.7037208182        1.3506431358
  H        -3.5046396797       13.3203622613        0.2979314345
  H        -1.4217570914        9.6829162959        1.6808562182
  H        -1.0799233360        9.0668647519        0.2641621290
  H         0.5683921163        5.3491093349        4.4840046178
  H         1.3485380848        2.7031304165        4.2058491841
  H        -0.5247938768        3.6855991392        2.3846484885
  H         6.3942405975       -1.3357472944        5.6828407436
  H         5.6936556595        1.2413999474        6.0279217791
  H        -0.8007602625        1.3586846607        7.9257585823
  H        -1.9019245412       12.2210178836        4.4864672363
  H        -1.1211814052        9.5701896917        4.2060268451
  H        -2.9958393629       10.5556486429        2.3837360625
  H         3.9382674554        5.5176046642        5.6770030817
  H         3.2278695791        8.1274286609        6.0238576278
  H        -3.2739784740        8.2286001860        7.9305557995
     138
 i =        4, E =     -1761.2533400118
 Ca        -0.7422861907        1.3791043254        3.6798383627
 Ca         2.5194077246        4.5756086263        3.2844065696
 Ca        -1.8692701753        4.8547603951        3.9471823016
 Ca         3.4537196617        0.9408646441        3.5229079794
 Si         5.9588341024        5.8111684379        1.9725502113
 Si         6.7101934174        0.6552521548        3.7934514046
 Si         5.5207458258        3.4958905025        3.9354713628
  O         4.9463230364       13.0276081933        2.5951143712
  O         0.3561185721        5.5492210002        3.5395838581
  O         5.4877368380       -0.2853579288        4.3100336541
  O         7.8412484737        0.8630096189        4.9419968468
  O         7.4307349994        0.1855950790        2.3905737715
  O         5.2677086642        4.4588745937        2.6177460281
  O         6.0042484726        2.0578328186        3.3012901723
  O         5.9837798101        5.6840331468        0.3650396175
  O         4.0069060975        3.1944246403        4.4502754918
  O         6.6151643165        4.0962458335        4.9682441481
  O         1.4890818557        2.3200067689        3.3091538500
  O        -1.3696451686        3.1925666978        2.3951570253
  O         3.9557379047        0.8396781191        1.2134251217
  O         4.5216500262       -0.9563106514        9.3118010346
  O         8.3139005562       -1.7222132511        9.4461917309
  O         6.1778167359        0.9874479120        9.4043279004
 Ca         7.6915046855        2.5972190843        6.5948335640
 Ca         4.4408352263       -0.6026119905        6.9376944183
 Ca         8.7700052744       -0.8242883619        6.4344363432
 Ca         3.4791009453        2.9823646039        6.6159276908
 Si         1.0579425057       -1.8030539020        8.3249376148
 Si         0.2836485802        3.4195926726        6.3951244348
 Si         1.4056376141        0.5143876685        6.3553342091
  O        -2.8527551233        4.6528937681        7.6923641230
  O         6.5707080210       -1.5735117680        6.6280922317
  O         1.4909514084        4.3229413473        5.7859106397
  O        -0.9316442134        3.1483324461        5.3663453895
  O        -0.2630438922        3.9929144914        7.8307473310
  O         1.5750767742       -0.3321693917        7.7624877143
  O         1.0234746676        2.0308859115        6.9153502373
  O         1.0492397543       -1.7903927382        9.9334066138
  O         2.9119362675        0.7028037192        5.7840595472
  O         0.2787221297       -0.0804272103        5.3631637895
  O         5.4985015029        1.6304077754        6.9167415508
  O        -1.7219777453        1.0160980492        7.9044753469
  O         3.5177942583        3.7924866254        8.8280571855
  O         2.5598007873        5.2087066251        1.0551694762