 DBCSR| CPU Multiplication driver                                           XSMM (U)
 DBCSR| Multrec recursion limit                                              512 (U)
 DBCSR| Multiplication stack size                                           1000 (D)
 DBCSR| Maximum elements for images                                    UNLIMITED (U)
 DBCSR| Multiplicative factor virtual images                                   1 (U)
 DBCSR| Use multiplication densification                                       T (D)
 DBCSR| Multiplication size stacks                                             3 (U)
 DBCSR| Use memory pool for CPU allocation                                     F (U)
 DBCSR| Number of 3D layers                                               SINGLE (U)
 DBCSR| Use MPI memory allocation                                              F (U)
 DBCSR| Use RMA algorithm                                                      F (U)
 DBCSR| Use Communication thread                                               T (U)
 DBCSR| Communication thread load                                             83 (D)
 DBCSR| MPI: My process id                                                     0
 DBCSR| MPI: Number of processes                                              52
 DBCSR| OMP: Current number of threads                                         2
 DBCSR| OMP: Max number of threads                                             2
 DBCSR| Split modifier for TAS multiplication algorithm                  1.0E+00 (U)


  **** **** ******  **  PROGRAM STARTED AT               2025-01-16 09:11:52.633
 ***** ** ***  *** **   PROGRAM STARTED ON                           ubuntu-GPU2
 **    ****   ******    PROGRAM STARTED BY                                   zkm
 ***** **    ** ** **   PROGRAM PROCESS ID                               3482618
  **** **  *******  **  PROGRAM STARTED IN /home/zkm/CP2K/Generate_dataset/Jenni
                                           te/Elastic/elastic_cp2k/example/epsil
                                           onxy/neg

 CP2K| version string:                                       CP2K version 2024.3
 CP2K| source code revision number:                                  git:6712648
 CP2K| cp2kflags: omp libint fftw3 libxc libgrpp pexsi elpa parallel scalapack m
 CP2K|            pi_f08 cosma quip xsmm plumed2 spglib mkl sirius libvori libbq
 CP2K|            qb libvdwxc hdf5
 CP2K| is freely available from                            https://www.cp2k.org/
 CP2K| Program compiled at            2024年 10月 05日 星期六 13:00:57 CST
 CP2K| Program compiled on                                           ubuntu-GPU2
 CP2K| Program compiled for                                                local
 CP2K| Data directory path                       /home/zkm/CP2K/cp2k-2024.3/data
 CP2K| Input file name                                                geoopt.inp

 GLOBAL| Force Environment number                                              1
 GLOBAL| Basis set file name                                        BASIS_MOLOPT
 GLOBAL| Potential file name                                           POTENTIAL
 GLOBAL| MM Potential file name                                     MM_POTENTIAL
 GLOBAL| Coordinate file name                                          coord.xyz
 GLOBAL| Method name                                                        CP2K
 GLOBAL| Project name                                                     geoopt
 GLOBAL| Run type                                                        GEO_OPT
 GLOBAL| FFT library                                                       FFTW3
 GLOBAL| Diagonalization library                                            ELPA
 GLOBAL| DGEMM library                                                      BLAS
 GLOBAL| Minimum number of eigenvectors for ELPA usage                        16
 GLOBAL| Orthonormality check for eigenvectors                          DISABLED
 GLOBAL| Matrix multiplication library                                     COSMA
 GLOBAL| All-to-all communication in single precision                          F
 GLOBAL| FFTs using library dependent lengths                                  F
 GLOBAL| Grid backend                                                       AUTO
 GLOBAL| Global print level                                                  LOW
 GLOBAL| MPI I/O enabled                                                       T
 GLOBAL| Total number of message passing processes                            52
 GLOBAL| Number of threads for this process                                    2
 GLOBAL| This output is from process                                           0
 GLOBAL| Stack size for threads created by OpenMP (OMP_STACKSIZE)        default
 GLOBAL| CPU model name            Intel(R) Xeon(R) Platinum 8179M CPU @ 2.40GHz
 GLOBAL| CPUID                                                              1003

 MEMORY| system memory details [Kb]
 MEMORY|                        rank 0           min           max       average
 MEMORY| MemTotal            527974664     527974664     527974664     527974664
 MEMORY| MemFree             104209232     104209232     104209232     104209232
 MEMORY| Buffers               6978732       6978732       6978732       6978732
 MEMORY| Cached              241759812     241759812     241759812     241759812
 MEMORY| Slab                 39987960      39987960      39987960      39987960
 MEMORY| SReclaimable         37158588      37158588      37158588      37158588
 MEMORY| MemLikelyFree       390106364     390106364     390106364     390106364


 GENERATE|  Preliminary Number of Bonds generated:                             0
 GENERATE|  Achieved consistency in connectivity generation.

 *******************************************************************************
 *******************************************************************************
 **                                                                           **
 **     #####                         ##              ##                      **
 **    ##   ##            ##          ##              ##                      **
 **   ##     ##                       ##            ######                    **
 **   ##     ##  ##   ##  ##   #####  ##  ##   ####   ##    #####    #####    **
 **   ##     ##  ##   ##  ##  ##      ## ##   ##      ##   ##   ##  ##   ##   **
 **   ##  ## ##  ##   ##  ##  ##      ####     ###    ##   ######   ######    **
 **    ##  ###   ##   ##  ##  ##      ## ##      ##   ##   ##       ##        **
 **     #######   #####   ##   #####  ##  ##  ####    ##    #####   ##        **
 **           ##                                                    ##        **
 **                                                                           **
 **                                                ... make the atoms dance   **
 **                                                                           **
 **            Copyright (C) by CP2K developers group (2000-2024)             **
 **                      J. Chem. Phys. 152, 194103 (2020)                    **
 **                                                                           **
 *******************************************************************************


 TOTAL NUMBERS AND MAXIMUM NUMBERS

  Total number of            - Atomic kinds:                                   4
                             - Atoms:                                        138
                             - Shell sets:                                   138
                             - Shells:                                       620
                             - Primitive Cartesian functions:                696
                             - Cartesian basis functions:                   1554
                             - Spherical basis functions:                   1460

  Maximum angular momentum of- Orbital basis functions:                        2
                             - Local part of the GTH pseudopotential:          2
                             - Non-local part of the GTH pseudopotential:      3


 SCF PARAMETERS         Density guess:                                    ATOMIC
                        --------------------------------------------------------
                        max_scf:                                              25
                        max_scf_history:                                       0
                        max_diis:                                              4
                        --------------------------------------------------------
                        eps_scf:                                        1.00E-07
                        eps_scf_history:                                0.00E+00
                        eps_diis:                                       1.00E-01
                        eps_eigval:                                     1.00E-05
                        --------------------------------------------------------
                        level_shift [a.u.]:                             0.000000
                        --------------------------------------------------------
                        Outer loop SCF in use 
                        No variables optimised in outer loop
                        eps_scf                                         1.00E-07
                        max_scf                                               20
                        No outer loop optimization
                        step_size                                       5.00E-01

 BFGS| Use rational function optimization for step estimation:                NO
 BFGS| Use model Hessian for initial guess:                                  YES
 BFGS| Restart Hessian:                                                       NO
 BFGS| Trust radius:                                                       0.378

 *******************************************************************************
 ***                     STARTING GEOMETRY OPTIMIZATION                      ***
 ***                                   BFGS                                  ***
 *******************************************************************************

 Number of electrons:                                                        656
 Number of occupied orbitals:                                                328
 Number of molecular orbitals:                                               328

 Number of orbital functions:                                               1460
 Number of independent orbital functions:                                   1460

 Extrapolation method: initial_guess


 SCF WAVEFUNCTION OPTIMIZATION

  ----------------------------------- OT ---------------------------------------
  Minimizer      : DIIS                : direct inversion
                                         in the iterative subspace
                                         using   7 DIIS vectors
                                         safer DIIS on
  Preconditioner : FULL_KINETIC        : inversion of T + eS
  Precond_solver : DEFAULT
  stepsize       :    0.15000000                  energy_gap     :    0.20000000
  eps_taylor     :   0.10000E-15                  max_taylor     :             4
  ----------------------------------- OT ---------------------------------------

  Step     Update method      Time    Convergence         Total energy    Change
  ------------------------------------------------------------------------------
     1 OT DIIS     0.15E+00    1.1     0.01901631     -1710.2282286976 -1.71E+03
     2 OT DIIS     0.15E+00    1.8     0.01127987     -1728.7491883990 -1.85E+01
     3 OT DIIS     0.15E+00    1.7     0.00838025     -1737.8500221585 -9.10E+00
     4 OT DIIS     0.15E+00    1.7     0.00559297     -1746.4741659249 -8.62E+00
     5 OT DIIS     0.15E+00    1.7     0.00415325     -1750.9431210057 -4.47E+00
     6 OT DIIS     0.15E+00    1.8     0.00320138     -1753.8257001893 -2.88E+00
     7 OT DIIS     0.15E+00    1.7     0.00244945     -1755.9675897250 -2.14E+00
     8 OT DIIS     0.15E+00    1.7     0.00192486     -1757.3784694457 -1.41E+00
     9 OT DIIS     0.15E+00    1.7     0.00154321     -1758.3156191274 -9.37E-01
    10 OT DIIS     0.15E+00    1.7     0.00132324     -1758.9173874722 -6.02E-01
    11 OT DIIS     0.15E+00    1.7     0.00114945     -1759.3223980906 -4.05E-01
    12 OT DIIS     0.15E+00    1.7     0.00104383     -1759.6892508215 -3.67E-01
    13 OT DIIS     0.15E+00    1.8     0.00093607     -1759.9232476321 -2.34E-01
    14 OT DIIS     0.15E+00    1.7     0.00084656     -1760.1807742720 -2.58E-01
    15 OT DIIS     0.15E+00    1.8     0.00076971     -1760.3722576251 -1.91E-01
    16 OT DIIS     0.15E+00    1.7     0.00069759     -1760.5591664087 -1.87E-01
    17 OT DIIS     0.15E+00    1.7     0.00062281     -1760.7192371011 -1.60E-01
    18 OT DIIS     0.15E+00    1.7     0.00054795     -1760.8483833474 -1.29E-01
    19 OT DIIS     0.15E+00    1.7     0.00046060     -1760.9696499014 -1.21E-01
    20 OT DIIS     0.15E+00    1.7     0.00036964     -1761.0630948896 -9.34E-02
    21 OT DIIS     0.15E+00    1.7     0.00034930     -1761.0673500508 -4.26E-03
    22 OT DIIS     0.15E+00    1.7     0.00026209     -1761.1255509923 -5.82E-02
    23 OT DIIS     0.15E+00    1.7     0.00021452     -1761.1507296799 -2.52E-02
    24 OT DIIS     0.15E+00    2.8     0.00018477     -1761.1657505460 -1.50E-02
    25 OT DIIS     0.15E+00    1.7     0.00014569     -1761.1785518822 -1.28E-02

  Leaving inner SCF loop after reaching    25 steps.


  Electronic density on regular grids:       -655.9999999993        0.0000000007
  Core density on regular grids:              655.9999999997       -0.0000000003
  Total charge density on r-space grids:        0.0000000004
  Total charge density g-space grids:           0.0000000004

  Overlap energy of the core charge distribution:               0.00000085414675
  Self energy of the core charge distribution:              -4144.80997841715816
  Core Hamiltonian energy:                                   1117.50205512663979
  Hartree energy:                                            1613.56893569440740
  Exchange-correlation energy:                               -346.94451889374540
  Dispersion energy:                                           -0.49504624644627

  Total energy:                                             -1761.17855188215617

  outer SCF iter =    1 RMS gradient =   0.15E-03 energy =      -1761.1785518822

  ----------------------------------- OT ---------------------------------------
  Minimizer      : DIIS                : direct inversion
                                         in the iterative subspace
                                         using   7 DIIS vectors
                                         safer DIIS on
  Preconditioner : FULL_KINETIC        : inversion of T + eS
  Precond_solver : DEFAULT
  stepsize       :    0.15000000                  energy_gap     :    0.20000000
  eps_taylor     :   0.10000E-15                  max_taylor     :             4
  ----------------------------------- OT ---------------------------------------

  Step     Update method      Time    Convergence         Total energy    Change
  ------------------------------------------------------------------------------
     1 OT DIIS     0.15E+00    3.5     0.00040235     -1761.1851729217 -6.62E-03
     2 OT DIIS     0.15E+00    1.7     0.00030196     -1761.1950993597 -9.93E-03
     3 OT DIIS     0.15E+00    1.7     0.00021146     -1761.2055984641 -1.05E-02
     4 OT DIIS     0.15E+00    1.7     0.00015458     -1761.2118943555 -6.30E-03
     5 OT DIIS     0.15E+00    1.7     0.00010122     -1761.2164677262 -4.57E-03
     6 OT DIIS     0.15E+00    1.7     0.00006516     -1761.2186865785 -2.22E-03
     7 OT DIIS     0.15E+00    1.8     0.00004634     -1761.2194632393 -7.77E-04
     8 OT DIIS     0.15E+00    1.7     0.00002942     -1761.2199348919 -4.72E-04
     9 OT DIIS     0.15E+00    1.7     0.00002004     -1761.2201145827 -1.80E-04
    10 OT DIIS     0.15E+00    1.7     0.00001443     -1761.2201899797 -7.54E-05
    11 OT DIIS     0.15E+00    1.7     0.00000989     -1761.2202336641 -4.37E-05
    12 OT DIIS     0.15E+00    1.7     0.00000696     -1761.2202532831 -1.96E-05
    13 OT DIIS     0.15E+00    1.7     0.00000502     -1761.2202620914 -8.81E-06
    14 OT DIIS     0.15E+00    1.8     0.00000359     -1761.2202664569 -4.37E-06
    15 OT DIIS     0.15E+00    1.7     0.00000271     -1761.2202684169 -1.96E-06
    16 OT DIIS     0.15E+00    1.8     0.00000205     -1761.2202695278 -1.11E-06
    17 OT DIIS     0.15E+00    1.7     0.00000158     -1761.2202701272 -5.99E-07
    18 OT DIIS     0.15E+00    1.7     0.00000123     -1761.2202704894 -3.62E-07
    19 OT DIIS     0.15E+00    1.7     0.00000093     -1761.2202707256 -2.36E-07
    20 OT DIIS     0.15E+00    1.8     0.00000070     -1761.2202708679 -1.42E-07
    21 OT DIIS     0.15E+00    1.7     0.00000055     -1761.2202709418 -7.39E-08
    22 OT DIIS     0.15E+00    1.7     0.00000042     -1761.2202709880 -4.62E-08
    23 OT DIIS     0.15E+00    1.7     0.00000032     -1761.2202710165 -2.85E-08
    24 OT DIIS     0.15E+00    1.7     0.00000025     -1761.2202710335 -1.70E-08
    25 OT DIIS     0.15E+00    3.1     0.00000020     -1761.2202710438 -1.03E-08

  Leaving inner SCF loop after reaching    25 steps.


  Electronic density on regular grids:       -655.9999999993        0.0000000007
  Core density on regular grids:              655.9999999997       -0.0000000003
  Total charge density on r-space grids:        0.0000000003
  Total charge density g-space grids:           0.0000000003

  Overlap energy of the core charge distribution:               0.00000085414675
  Self energy of the core charge distribution:              -4144.80997841715816
  Core Hamiltonian energy:                                   1117.42357734318466
  Hartree energy:                                            1613.60814024414822
  Exchange-correlation energy:                               -346.94696482168405
  Dispersion energy:                                           -0.49504624644627

  Total energy:                                             -1761.22027104380913

  outer SCF iter =    2 RMS gradient =   0.20E-06 energy =      -1761.2202710438

  ----------------------------------- OT ---------------------------------------
  Minimizer      : DIIS                : direct inversion
                                         in the iterative subspace
                                         using   7 DIIS vectors
                                         safer DIIS on
  Preconditioner : FULL_KINETIC        : inversion of T + eS
  Precond_solver : DEFAULT
  stepsize       :    0.15000000                  energy_gap     :    0.20000000
  eps_taylor     :   0.10000E-15                  max_taylor     :             4
  ----------------------------------- OT ---------------------------------------

  Step     Update method      Time    Convergence         Total energy    Change
  ------------------------------------------------------------------------------
     1 OT DIIS     0.15E+00    4.8     0.00000016     -1761.2202710499 -6.08E-09
     2 OT DIIS     0.15E+00    1.7     0.00000014     -1761.2202710515 -1.63E-09
     3 OT DIIS     0.15E+00    1.7     0.00000012     -1761.2202710541 -2.55E-09
     4 OT DIIS     0.15E+00    1.7     0.00000007     -1761.2202710584 -4.33E-09

  *** SCF run converged in     4 steps ***


  Electronic density on regular grids:       -655.9999999993        0.0000000007
  Core density on regular grids:              655.9999999997       -0.0000000003
  Total charge density on r-space grids:        0.0000000003
  Total charge density g-space grids:           0.0000000003

  Overlap energy of the core charge distribution:               0.00000085414675
  Self energy of the core charge distribution:              -4144.80997841715816
  Core Hamiltonian energy:                                   1117.42351376507668
  Hartree energy:                                            1613.60819528902243
  Exchange-correlation energy:                               -346.94695630305023
  Dispersion energy:                                           -0.49504624644627

  Total energy:                                             -1761.22027105840903

  outer SCF iter =    3 RMS gradient =   0.70E-07 energy =      -1761.2202710584
  outer SCF loop converged in   3 iterations or   54 steps


 ENERGY| Total FORCE_EVAL ( QS ) energy [a.u.]:            -1761.220271059811012

 ATOMIC FORCES in [a.u.]

 # Atom   Kind   Element          X              Y              Z
      1      1      Ca         -0.00180436     0.00155944     0.00144999
      2      1      Ca          0.00029488     0.00003612     0.00023027
      3      1      Ca         -0.00030000     0.00024223     0.00009252
      4      1      Ca          0.00382353     0.00094670    -0.00063569
      5      2      Si          0.00030587    -0.00054704     0.00024154
      6      2      Si          0.00399527    -0.00285442    -0.00719766
      7      2      Si          0.00043573    -0.00145179    -0.00044779
      8      3      O           0.09410595     0.02293631     0.04153754
      9      3      O           0.00227171    -0.00020755    -0.00010794
     10      3      O           0.00292510     0.00278753     0.00276761
     11      3      O           0.00101308    -0.00009070     0.00353629
     12      3      O           0.02061053    -0.02040703    -0.00731523
     13      3      O           0.00150546     0.00145146     0.00012102
     14      3      O          -0.00365551     0.00215383     0.00048684
     15      3      O          -0.00054078     0.00128124    -0.00031157
     16      3      O          -0.00179697    -0.00013113     0.00037944
     17      3      O           0.00181232     0.00075888     0.00087163
     18      3      O          -0.00139663    -0.00140352    -0.00058496
     19      3      O           0.00024440    -0.00089318    -0.00078562
     20      3      O          -0.00272581    -0.00058683    -0.00187281
     21      3      O           0.00217126    -0.00563639    -0.00060889
     22      3      O           0.01216927     0.00676969    -0.01141964
     23      3      O           0.00054822    -0.00226146    -0.00051061
     24      1      Ca         -0.00063244     0.00017035    -0.00038530
     25      1      Ca          0.00058011    -0.00034048     0.00177262
     26      1      Ca          0.00315396    -0.00003105    -0.00192872
     27      1      Ca          0.00032673    -0.00020922    -0.00033547
     28      2      Si          0.10639277     0.00783969     0.02543807
     29      2      Si          0.00015522     0.00002306    -0.00000406
     30      2      Si          0.00091805    -0.00040112     0.00278746
     31      3      O          -0.00183256     0.00018525    -0.00029033
     32      3      O           0.00874606     0.00337332    -0.00018084
     33      3      O          -0.00240038    -0.00027636    -0.00001643
     34      3      O          -0.00299577    -0.00010441     0.00010714
     35      3      O           0.00406271    -0.00021381     0.00008584
     36      3      O           0.00237378     0.00262491     0.00018364
     37      3      O          -0.00221462    -0.00043652     0.00012789
     38      3      O           0.00720362     0.00061206     0.00035608
     39      3      O          -0.00145638    -0.00031323    -0.00070470
     40      3      O           0.00124683    -0.00046793    -0.00160641
     41      3      O          -0.00263498     0.00002509    -0.00006468
     42      3      O          -0.00025985    -0.00167696    -0.00013645
     43      3      O           0.00272519    -0.00102881     0.00212188
     44      3      O           0.00121022     0.00023213    -0.00037276
     45      3      O           0.00143163    -0.00164589     0.00027773
     46      3      O          -0.00138449     0.00152228     0.00070146
     47      1      Ca         -0.00293764     0.00208391     0.00088108
     48      1      Ca          0.00048850    -0.00041708     0.00047280
     49      1      Ca         -0.00054229    -0.00030981    -0.00121820
     50      1      Ca         -0.00394783     0.00119380     0.00023883
     51      1      Ca         -0.00027875     0.00028840     0.00055008
     52      2      Si         -0.10632835    -0.00352471    -0.02665233
     53      2      Si         -0.00018626    -0.00004301    -0.00005716
     54      2      Si         -0.00147550     0.00080088    -0.00299728
     55      3      O           0.00024270    -0.00004253    -0.00013849
     56      3      O          -0.00466842    -0.00297152    -0.00023976
     57      3      O          -0.00035042    -0.00033110     0.00003364
     58      3      O          -0.00061465     0.00032316     0.00019851
     59      3      O           0.00055556     0.00018641    -0.00006804
     60      3      O          -0.00118994    -0.00262226     0.00044211
     61      3      O          -0.00188411    -0.00054417    -0.00008192
     62      3      O          -0.00191560     0.00240294    -0.00064079
     63      3      O          -0.00129134    -0.00060467     0.00070974
     64      3      O           0.00018973     0.00104737     0.00272095
     65      3      O          -0.00154159    -0.00099911    -0.00051684
     66      3      O          -0.00158619     0.00107581    -0.00015828
     67      3      O          -0.00333521    -0.00034435    -0.00157610
     68      3      O           0.00172396    -0.00027181     0.00037768
     69      3      O           0.00190037     0.00194295    -0.00072341
     70      3      O           0.00157947    -0.00106293     0.00005849
     71      1      Ca          0.00128141    -0.00177632    -0.00144978
     72      1      Ca         -0.00013727     0.00026691    -0.00007520
     73      1      Ca          0.00012087    -0.00013784    -0.00004818
     74      1      Ca         -0.00340833    -0.00023226     0.00116707
     75      2      Si         -0.00015875     0.00047049    -0.00017122
     76      2      Si         -0.00301931     0.00295336     0.00714836
     77      2      Si         -0.00016183     0.00174659     0.00026011
     78      3      O          -0.09229470    -0.02663716    -0.04001208
     79      3      O           0.00219826     0.00054737     0.00019208
     80      3      O          -0.00624698    -0.00276273    -0.00345907
     81      3      O          -0.00571493     0.00001098    -0.00329248
     82      3      O          -0.02044024     0.02105842     0.00913718
     83      3      O           0.00112413    -0.00057342     0.00024015
     84      3      O          -0.00096986    -0.00271902    -0.00078643
     85      3      O           0.00406571     0.00010340     0.00016758
     86      3      O           0.00004246    -0.00050681    -0.00031656
     87      3      O           0.00034347    -0.00053809    -0.00032628
     88      3      O          -0.00157176     0.00024112    -0.00015367
     89      3      O          -0.00102273    -0.00008971     0.00019584
     90      3      O          -0.00285384    -0.00379047     0.00249618
     91      3      O           0.00016586     0.00288716    -0.00057801
     92      3      O          -0.00383806    -0.00466359     0.00876189
     93      3      O          -0.00232496     0.00223829     0.00120244
     94      1      Ca         -0.00192450    -0.00114458    -0.00095734
     95      4      H           0.00320139     0.00003489     0.00131945
     96      4      H          -0.00085431     0.00069895    -0.00008810
     97      4      H           0.00178799     0.00045776    -0.00000676
     98      4      H           0.00168429     0.00339021    -0.00024995
     99      4      H           0.00382369    -0.00610140     0.00396692
    100      4      H          -0.00324344     0.00088916     0.00716646
    101      4      H           0.00085494     0.00054680     0.00038849
    102      4      H           0.00011089    -0.00004547     0.00026786
    103      4      H          -0.00022012     0.00061574    -0.00111042
    104      4      H           0.00031339     0.00024119     0.00003224
    105      4      H          -0.00002778     0.00012225     0.00001855
    106      4      H          -0.00003554    -0.00018582     0.00004603
    107      4      H          -0.00003508    -0.00010664    -0.00039880
    108      4      H          -0.00053983     0.00039418    -0.00040907
    109      4      H           0.00002147     0.00009610    -0.00000807
    110      4      H          -0.00031368    -0.00006684     0.00025315
    111      4      H           0.00070302    -0.00003897     0.00102002
    112      4      H          -0.00010446     0.00034088    -0.00042055
    113      4      H           0.00052184     0.00041088    -0.00017060
    114      4      H           0.00004608     0.00007729    -0.00016962
    115      4      H           0.00046860    -0.00079916     0.00036442
    116      4      H          -0.00003465    -0.00019452     0.00011039
    117      4      H           0.00106463    -0.00054013    -0.00041261
    118      4      H           0.00013510    -0.00034856     0.00042387
    119      4      H          -0.00373377     0.00103915    -0.00365443
    120      4      H          -0.00290734     0.00255689     0.00120548
    121      4      H          -0.00044759     0.00056587    -0.00024548
    122      4      H          -0.00129271    -0.00275035     0.00011209
    123      4      H           0.00272580    -0.00092493    -0.00611079
    124      4      H          -0.00271028     0.00341658    -0.00138365
    125      4      H           0.00002014     0.00005261     0.00011591
    126      4      H          -0.00036559    -0.00074733    -0.00033401
    127      4      H          -0.00000290     0.00007297     0.00005387
    128      4      H          -0.00006881    -0.00001618     0.00010133
    129      4      H           0.00002808     0.00025548     0.00001776
    130      4      H          -0.00065304     0.00050877     0.00033034
    131      4      H          -0.00000642    -0.00010652    -0.00027511
    132      4      H           0.00027791     0.00022856    -0.00031400
    133      4      H           0.00091643    -0.00054378    -0.00009678
    134      4      H           0.00007449     0.00018403     0.00021995
    135      4      H           0.00034519    -0.00016299     0.00013684
    136      4      H          -0.00002177    -0.00004301    -0.00007575
    137      4      H          -0.00005700    -0.00003304    -0.00016245
    138      4      H           0.00026940     0.00063328    -0.00043356
 SUM OF ATOMIC FORCES          -0.00169313     0.00219823    -0.00005128     0.00277517

 STRESS| Analytical stress tensor [GPa]
 STRESS|                        x                   y                   z
 STRESS|      x        7.62127649929E-01   1.09190181603E+00   8.53832541486E-01
 STRESS|      y        1.09190181603E+00   1.51805622850E-02   8.20434697950E-02
 STRESS|      z        8.53832541486E-01   8.20434697950E-02   1.83081881516E-01
 STRESS| 1/3 Trace                                             3.20130031243E-01
 STRESS| Determinant                                          -7.93797238833E-02

 STRESS| Eigenvectors and eigenvalues of the analytical stress tensor [GPa]
 STRESS|                        1                   2                   3
 STRESS| Eigenvalues  -9.64458001727E-01   4.37537917072E-02   1.88109430375E+00
 STRESS|      x          -0.624099096602     -0.076044587444      0.777635864875
 STRESS|      y           0.660684783018     -0.582685240356      0.473258415835
 STRESS|      z           0.417128199848      0.809132332435      0.413894833865

 OPT| **************************************************************************
 OPT| Step number                                                              0
 OPT| Optimization method                                                   BFGS
 OPT| Total energy [hartree]                                    -1761.2202710598
 OPT| Used time [s]                                                       99.525
 OPT| **************************************************************************
 OPT| Estimated peak process memory [MiB]                                    449

 --------------------------
 OPTIMIZATION STEP:      1
 --------------------------

 Number of electrons:                                                        656
 Number of occupied orbitals:                                                328
 Number of molecular orbitals:                                               328

 Number of orbital functions:                                               1460
 Number of independent orbital functions:                                   1460

 Extrapolation method: ASPC


 SCF WAVEFUNCTION OPTIMIZATION

  ----------------------------------- OT ---------------------------------------
  Minimizer      : DIIS                : direct inversion
                                         in the iterative subspace
                                         using   7 DIIS vectors
                                         safer DIIS on
  Preconditioner : FULL_KINETIC        : inversion of T + eS
  Precond_solver : DEFAULT
  stepsize       :    0.15000000                  energy_gap     :    0.20000000
  eps_taylor     :   0.10000E-15                  max_taylor     :             4
  ----------------------------------- OT ---------------------------------------

  Step     Update method      Time    Convergence         Total energy    Change
  ------------------------------------------------------------------------------
     1 OT DIIS     0.15E+00    1.0     0.00020508     -1761.2349483393 -1.76E+03
     2 OT DIIS     0.15E+00    1.7     0.00012879     -1761.2373564415 -2.41E-03
     3 OT DIIS     0.15E+00    1.7     0.00006839     -1761.2390365181 -1.68E-03
     4 OT DIIS     0.15E+00    1.7     0.00003857     -1761.2397476790 -7.11E-04
     5 OT DIIS     0.15E+00    1.7     0.00002381     -1761.2400182999 -2.71E-04
     6 OT DIIS     0.15E+00    1.7     0.00001640     -1761.2401174599 -9.92E-05
     7 OT DIIS     0.15E+00    1.7     0.00001007     -1761.2401732915 -5.58E-05
     8 OT DIIS     0.15E+00    1.7     0.00000639     -1761.2401931499 -1.99E-05
     9 OT DIIS     0.15E+00    1.7     0.00000450     -1761.2401996689 -6.52E-06
    10 OT DIIS     0.15E+00    1.7     0.00000304     -1761.2402031193 -3.45E-06
    11 OT DIIS     0.15E+00    1.7     0.00000198     -1761.2402049341 -1.81E-06
    12 OT DIIS     0.15E+00    1.7     0.00000138     -1761.2402056591 -7.25E-07
    13 OT DIIS     0.15E+00    1.7     0.00000093     -1761.2402060346 -3.75E-07
    14 OT DIIS     0.15E+00    1.7     0.00000061     -1761.2402062146 -1.80E-07
    15 OT DIIS     0.15E+00    1.8     0.00000043     -1761.2402062797 -6.51E-08
    16 OT DIIS     0.15E+00    1.7     0.00000029     -1761.2402063150 -3.53E-08
    17 OT DIIS     0.15E+00    1.7     0.00000021     -1761.2402063292 -1.42E-08
    18 OT DIIS     0.15E+00    1.7     0.00000016     -1761.2402063357 -6.53E-09
    19 OT DIIS     0.15E+00    1.7     0.00000011     -1761.2402063399 -4.16E-09
    20 OT DIIS     0.15E+00    2.6     0.00000008     -1761.2402063418 -1.92E-09

  *** SCF run converged in    20 steps ***


  Electronic density on regular grids:       -655.9999999993        0.0000000007
  Core density on regular grids:              655.9999999997       -0.0000000003
  Total charge density on r-space grids:        0.0000000003
  Total charge density g-space grids:           0.0000000003

  Overlap energy of the core charge distribution:               0.00000067454530
  Self energy of the core charge distribution:              -4144.80997841715816
  Core Hamiltonian energy:                                   1117.25843552923266
  Hartree energy:                                            1613.71895882089211
  Exchange-correlation energy:                               -346.91253694388723
  Dispersion energy:                                           -0.49508600543908

  Total energy:                                             -1761.24020634181466

  outer SCF iter =    1 RMS gradient =   0.83E-07 energy =      -1761.2402063418
  outer SCF loop converged in   1 iterations or   20 steps


 ENERGY| Total FORCE_EVAL ( QS ) energy [a.u.]:            -1761.240206342846250

 ATOMIC FORCES in [a.u.]

 # Atom   Kind   Element          X              Y              Z
      1      1      Ca          0.00189548    -0.00014443     0.00042346
      2      1      Ca         -0.00049836    -0.00006700    -0.00043897
      3      1      Ca          0.00033156     0.00068705    -0.00027181
      4      1      Ca          0.00023064    -0.00081096     0.00051349
      5      2      Si          0.00012123    -0.00020637     0.00086899
      6      2      Si         -0.00033347    -0.00113158     0.00175328
      7      2      Si          0.00028530     0.00045299    -0.00092550
      8      3      O           0.04514186     0.01141511     0.02050562
      9      3      O          -0.00061635     0.00011526    -0.00023026
     10      3      O          -0.00109166    -0.00326719    -0.00157459
     11      3      O           0.00217569     0.00219144    -0.00230242
     12      3      O           0.01400543    -0.01161163    -0.00253733
     13      3      O           0.00123204     0.00066316    -0.00050614
     14      3      O           0.00034917     0.00064283    -0.00111795
     15      3      O           0.00033969    -0.00008671     0.00024642
     16      3      O          -0.00061060     0.00003803     0.00018226
     17      3      O           0.00109245    -0.00057167     0.00037728
     18      3      O          -0.00045159     0.00010453     0.00027579
     19      3      O          -0.00066378     0.00033347     0.00058746
     20      3      O           0.00009100     0.00085820    -0.00028659
     21      3      O           0.00164232    -0.00190644    -0.00058098
     22      3      O           0.00203492    -0.00089333    -0.00045982
     23      3      O           0.00011119    -0.00042661    -0.00001507
     24      1      Ca         -0.00083640    -0.00127126     0.00043674
     25      1      Ca          0.00037024     0.00033348    -0.00031978
     26      1      Ca          0.00206332    -0.00102179    -0.00005731
     27      1      Ca         -0.00045848    -0.00057221     0.00013141
     28      2      Si          0.06380657     0.00267660     0.01776686
     29      2      Si          0.00122053     0.00040834     0.00090330
     30      2      Si          0.00140592     0.00036388    -0.00172550
     31      3      O          -0.00053531    -0.00078977    -0.00031344
     32      3      O          -0.00077165     0.00170836    -0.00080876
     33      3      O          -0.00099063    -0.00004000    -0.00045096
     34      3      O          -0.00211084     0.00023626    -0.00001306
     35      3      O          -0.00067287    -0.00107298    -0.00015434
     36      3      O          -0.00211635     0.00008587    -0.00247823
     37      3      O          -0.00092998     0.00010510    -0.00062732
     38      3      O          -0.00138312     0.00016109    -0.00052381
     39      3      O           0.00110560     0.00044413     0.00156795
     40      3      O           0.00011777     0.00030947     0.00126098
     41      3      O           0.00057144     0.00010136     0.00033593
     42      3      O          -0.00018249     0.00180460    -0.00005737
     43      3      O           0.00213298    -0.00029898     0.00010357
     44      3      O           0.00073272     0.00003076    -0.00011263
     45      3      O           0.00076003     0.00083590    -0.00018766
     46      3      O          -0.00084393    -0.00081654    -0.00066323
     47      1      Ca          0.00030157    -0.00066463    -0.00069233
     48      1      Ca         -0.00032278     0.00094817    -0.00066547
     49      1      Ca         -0.00159729    -0.00028979    -0.00015483
     50      1      Ca         -0.00103610     0.00134042    -0.00097935
     51      1      Ca         -0.00001491     0.00004301    -0.00001513
     52      2      Si         -0.06126537     0.00163491    -0.01750769
     53      2      Si         -0.00044213    -0.00022797    -0.00012208
     54      2      Si         -0.00090612    -0.00066900     0.00148822
     55      3      O           0.00061762     0.00012115    -0.00002773
     56      3      O          -0.00140873    -0.00186902    -0.00009658
     57      3      O           0.00001067    -0.00052857     0.00017356
     58      3      O           0.00025592    -0.00016108    -0.00002241
     59      3      O           0.00001811    -0.00015552    -0.00028142
     60      3      O          -0.00092453     0.00101472     0.00061903
     61      3      O           0.00004105    -0.00019415     0.00003864
     62      3      O           0.00189284     0.00001949    -0.00073061
     63      3      O          -0.00275179     0.00053725    -0.00043035
     64      3      O          -0.00157444    -0.00021304    -0.00055769
     65      3      O          -0.00014180    -0.00002072     0.00000843
     66      3      O          -0.00152935    -0.00187064     0.00024104
     67      3      O          -0.00007857     0.00014816    -0.00001036
     68      3      O           0.00046722    -0.00001153    -0.00032842
     69      3      O           0.00093176    -0.00049312    -0.00035635
     70      3      O          -0.00013976     0.00095531     0.00059008
     71      1      Ca         -0.00288511    -0.00027529    -0.00057705
     72      1      Ca         -0.00026525     0.00002748    -0.00005485
     73      1      Ca          0.00025930    -0.00010435    -0.00020294
     74      1      Ca         -0.00054790     0.00049751    -0.00059897
     75      2      Si          0.00100406     0.00114136     0.00098065
     76      2      Si          0.00036345     0.00163939    -0.00166459
     77      2      Si          0.00004244    -0.00083010    -0.00000015
     78      3      O          -0.04361957    -0.01372589    -0.02010492
     79      3      O           0.00000465    -0.00053241     0.00006462
     80      3      O           0.00126100     0.00066660     0.00121281
     81      3      O          -0.00350136    -0.00210705     0.00249881
     82      3      O          -0.01713660     0.01223812     0.00200745
     83      3      O           0.00013709     0.00096869    -0.00034141
     84      3      O          -0.00103747    -0.00074171     0.00121659
     85      3      O           0.00123576    -0.00051635     0.00024631
     86      3      O          -0.00108733     0.00142461     0.00088234
     87      3      O          -0.00062334     0.00015395    -0.00038073
     88      3      O           0.00026298    -0.00052675     0.00023526
     89      3      O           0.00022038     0.00031705    -0.00064066
     90      3      O          -0.00269487    -0.00011714     0.00237350
     91      3      O          -0.00019214     0.00049481    -0.00015434
     92      3      O          -0.00073283     0.00307526    -0.00023807
     93      3      O          -0.00084470    -0.00043475    -0.00020399
     94      1      Ca         -0.00078251     0.00054446     0.00151237
     95      4      H          -0.00066726    -0.00093349    -0.00073336
     96      4      H           0.00061285     0.00011427     0.00022158
     97      4      H           0.00082908     0.00059651     0.00002978
     98      4      H           0.00149469    -0.00027250     0.00033894
     99      4      H           0.00128600    -0.00049328     0.00188802
    100      4      H           0.00166758     0.00160812    -0.00041263
    101      4      H           0.00016996     0.00008536     0.00016355
    102      4      H          -0.00009458    -0.00019357    -0.00020260
    103      4      H           0.00053412     0.00069599    -0.00077918
    104      4      H           0.00029085    -0.00033157     0.00043890
    105      4      H           0.00025328    -0.00033461     0.00007012
    106      4      H           0.00032906     0.00003257     0.00022196
    107      4      H           0.00008036    -0.00012659     0.00001770
    108      4      H           0.00024591     0.00011514    -0.00032403
    109      4      H          -0.00022234    -0.00021801     0.00003470
    110      4      H          -0.00045994     0.00115979     0.00022266
    111      4      H          -0.00053573    -0.00008434    -0.00017184
    112      4      H          -0.00035474    -0.00005687    -0.00000583
    113      4      H           0.00080953    -0.00031069     0.00009602
    114      4      H           0.00050865     0.00040940     0.00014716
    115      4      H           0.00011055    -0.00014696     0.00048879
    116      4      H           0.00078469     0.00030567    -0.00047236
    117      4      H           0.00092835    -0.00070409    -0.00048368
    118      4      H           0.00003933     0.00024783     0.00020124
    119      4      H          -0.00264833     0.00034864    -0.00121841
    120      4      H          -0.00190251     0.00083246     0.00035373
    121      4      H           0.00008247    -0.00017041     0.00000218
    122      4      H          -0.00110981    -0.00021018     0.00007080
    123      4      H          -0.00018215    -0.00177845    -0.00051775
    124      4      H          -0.00052880    -0.00112473    -0.00073054
    125      4      H          -0.00055081     0.00022529     0.00028937
    126      4      H          -0.00070565     0.00063809    -0.00006085
    127      4      H           0.00042899    -0.00004239     0.00008729
    128      4      H           0.00025452    -0.00044315    -0.00038584
    129      4      H           0.00025638    -0.00017778    -0.00025966
    130      4      H           0.00153450     0.00108662     0.00086108
    131      4      H          -0.00014768    -0.00044133    -0.00021888
    132      4      H          -0.00025993    -0.00012531    -0.00000673
    133      4      H          -0.00089764    -0.00106942    -0.00029609
    134      4      H          -0.00016278     0.00047699     0.00016116
    135      4      H          -0.00082884     0.00040456     0.00038159
    136      4      H           0.00027036     0.00016506    -0.00003801
    137      4      H          -0.00054891     0.00030510     0.00020975
    138      4      H          -0.00011556    -0.00018980     0.00005357
 SUM OF ATOMIC FORCES          -0.01060940     0.00264508    -0.00351838     0.01148629

 STRESS| Analytical stress tensor [GPa]
 STRESS|                        x                   y                   z
 STRESS|      x        3.47134050667E-01   8.20770570025E-01   4.38122143806E-01
 STRESS|      y        8.20770570025E-01  -1.36722809428E-01  -1.22550358085E-02
 STRESS|      z        4.38122143806E-01  -1.22550358085E-02   6.04191664366E-02
 STRESS| 1/3 Trace                                             9.02768025585E-02
 STRESS| Determinant                                          -2.61916196489E-02

 STRESS| Eigenvectors and eigenvalues of the analytical stress tensor [GPa]
 STRESS|                        1                   2                   3
 STRESS| Eigenvalues  -8.39293885102E-01   2.88613729310E-02   1.08126291985E+00
 STRESS|      x          -0.615649124221     -0.076705472573      0.784278283725
 STRESS|      y           0.724626530446     -0.446205893424      0.525182532124
 STRESS|      z           0.309665217969      0.891637017598      0.330289087965

 OPT| **************************************************************************
 OPT| Step number                                                              1
 OPT| Optimization method                                                   BFGS
 OPT| Total energy [hartree]                                    -1761.2402063428
 OPT| Effective energy change [hartree]                            -0.0199352830
 OPT| Predicted energy change [hartree]                            -0.0148152108
 OPT| Scaling factor                                                0.0000000000
 OPT| Step size                                                     0.0864400911
 OPT| Trust radius                                                  0.3779452266
 OPT| Decrease in energy                                                     YES
 OPT| Used time [s]                                                       38.884
 OPT|
 OPT| Maximum step size                                             0.0864400911
 OPT| Convergence limit for maximum step size                       0.0030000000
 OPT| Maximum step size is converged                                          NO
 OPT|
 OPT| RMS step size                                                 0.0147693279
 OPT| Convergence limit for RMS step size                           0.0015000000
 OPT| RMS step size is converged                                              NO
 OPT|
 OPT| Maximum gradient                                              0.0638065666
 OPT| Convergence limit for maximum gradient                        0.0004500000
 OPT| Maximum gradient is converged                                           NO
 OPT|
 OPT| RMS gradient                                                  0.0059455073
 OPT| Convergence limit for RMS gradient                            0.0003000000
 OPT| RMS gradient is converged                                               NO
 OPT| **************************************************************************
 OPT| Estimated peak process memory after this step [MiB]                    511

 --------------------------
 OPTIMIZATION STEP:      2
 --------------------------

 Number of electrons:                                                        656
 Number of occupied orbitals:                                                328
 Number of molecular orbitals:                                               328

 Number of orbital functions:                                               1460
 Number of independent orbital functions:                                   1460

 Extrapolation method: ASPC


 SCF WAVEFUNCTION OPTIMIZATION

  ----------------------------------- OT ---------------------------------------
  Minimizer      : DIIS                : direct inversion
                                         in the iterative subspace
                                         using   7 DIIS vectors
                                         safer DIIS on
  Preconditioner : FULL_KINETIC        : inversion of T + eS
  Precond_solver : DEFAULT
  stepsize       :    0.15000000                  energy_gap     :    0.20000000
  eps_taylor     :   0.10000E-15                  max_taylor     :             4
  ----------------------------------- OT ---------------------------------------

  Step     Update method      Time    Convergence         Total energy    Change
  ------------------------------------------------------------------------------
     1 OT DIIS     0.15E+00    1.1     0.00021588     -1761.2438009095 -1.76E+03
     2 OT DIIS     0.15E+00    1.7     0.00014231     -1761.2465230781 -2.72E-03
     3 OT DIIS     0.15E+00    1.7     0.00007782     -1761.2487027687 -2.18E-03
     4 OT DIIS     0.15E+00    1.7     0.00004150     -1761.2496868096 -9.84E-04
     5 OT DIIS     0.15E+00    1.7     0.00002644     -1761.2499888145 -3.02E-04
     6 OT DIIS     0.15E+00    1.7     0.00001796     -1761.2501131413 -1.24E-04
     7 OT DIIS     0.15E+00    1.7     0.00001111     -1761.2501792205 -6.61E-05
     8 OT DIIS     0.15E+00    1.7     0.00000711     -1761.2502029061 -2.37E-05
     9 OT DIIS     0.15E+00    1.7     0.00000494     -1761.2502110226 -8.12E-06
    10 OT DIIS     0.15E+00    1.7     0.00000324     -1761.2502152914 -4.27E-06
    11 OT DIIS     0.15E+00    1.8     0.00000213     -1761.2502172446 -1.95E-06
    12 OT DIIS     0.15E+00    1.7     0.00000146     -1761.2502180847 -8.40E-07
    13 OT DIIS     0.15E+00    1.7     0.00000101     -1761.2502184763 -3.92E-07
    14 OT DIIS     0.15E+00    1.7     0.00000066     -1761.2502186778 -2.02E-07
    15 OT DIIS     0.15E+00    1.7     0.00000046     -1761.2502187538 -7.60E-08
    16 OT DIIS     0.15E+00    1.7     0.00000032     -1761.2502187920 -3.82E-08
    17 OT DIIS     0.15E+00    1.7     0.00000023     -1761.2502188083 -1.63E-08
    18 OT DIIS     0.15E+00    1.7     0.00000017     -1761.2502188165 -8.23E-09
    19 OT DIIS     0.15E+00    1.7     0.00000012     -1761.2502188216 -5.13E-09
    20 OT DIIS     0.15E+00    1.7     0.00000009     -1761.2502188239 -2.28E-09

  *** SCF run converged in    20 steps ***


  Electronic density on regular grids:       -655.9999999993        0.0000000007
  Core density on regular grids:              655.9999999997       -0.0000000003
  Total charge density on r-space grids:        0.0000000003
  Total charge density g-space grids:           0.0000000003

  Overlap energy of the core charge distribution:               0.00000060548008
  Self energy of the core charge distribution:              -4144.80997841715816
  Core Hamiltonian energy:                                   1117.18415475102483
  Hartree energy:                                            1613.76843686270445
  Exchange-correlation energy:                               -346.89773318945288
  Dispersion energy:                                           -0.49509943652457

  Total energy:                                             -1761.25021882392639

  outer SCF iter =    1 RMS gradient =   0.95E-07 energy =      -1761.2502188239
  outer SCF loop converged in   1 iterations or   20 steps


 ENERGY| Total FORCE_EVAL ( QS ) energy [a.u.]:            -1761.250218825309503

 ATOMIC FORCES in [a.u.]

 # Atom   Kind   Element          X              Y              Z
      1      1      Ca          0.00022733    -0.00113688    -0.00159507
      2      1      Ca         -0.00023400    -0.00022607    -0.00021116
      3      1      Ca          0.00014024    -0.00068619     0.00020836
      4      1      Ca         -0.00136023    -0.00019801    -0.00091029
      5      2      Si          0.00042653    -0.00061721     0.00029125
      6      2      Si          0.00214262     0.00287701     0.00396078
      7      2      Si          0.00105836     0.00203269     0.00000001
      8      3      O           0.01149808     0.00145503     0.00414542
      9      3      O          -0.00014680     0.00072778    -0.00018865
     10      3      O          -0.00003034     0.00109482    -0.00152221
     11      3      O          -0.00161389    -0.00216862     0.00043565
     12      3      O           0.00609080    -0.00517450    -0.00250390
     13      3      O           0.00027485    -0.00074435    -0.00006365
     14      3      O          -0.00079807    -0.00189389    -0.00068083
     15      3      O           0.00042311    -0.00005758    -0.00000175
     16      3      O          -0.00006741    -0.00101886    -0.00026050
     17      3      O          -0.00029002    -0.00042316    -0.00059649
     18      3      O           0.00219328     0.00045912     0.00093889
     19      3      O          -0.00053815     0.00061864     0.00002489
     20      3      O           0.00252745    -0.00066160     0.00178191
     21      3      O          -0.00056300     0.00256406     0.00051846
     22      3      O          -0.00645443     0.00004304     0.00610672
     23      3      O          -0.00056165     0.00021529    -0.00002050
     24      1      Ca          0.00074591     0.00036584     0.00025539
     25      1      Ca          0.00114076     0.00018111     0.00044061
     26      1      Ca          0.00127525    -0.00063965     0.00203926
     27      1      Ca          0.00016765     0.00121031     0.00031941
     28      2      Si          0.01393839    -0.00016613     0.00465287
     29      2      Si         -0.00214877     0.00054975     0.00051599
     30      2      Si         -0.00178124    -0.00027540     0.00092659
     31      3      O           0.00050923     0.00094291     0.00009982
     32      3      O          -0.00136893     0.00154577     0.00052813
     33      3      O           0.00085289     0.00013835     0.00057373
     34      3      O           0.00267203     0.00000724    -0.00102913
     35      3      O           0.00079990     0.00122069    -0.00014903
     36      3      O          -0.00066161    -0.00320899     0.00072548
     37      3      O           0.00300442     0.00063704    -0.00130287
     38      3      O          -0.00047040    -0.00006123    -0.00137911
     39      3      O           0.00003140     0.00012785    -0.00156240
     40      3      O           0.00244171     0.00077572    -0.00058916
     41      3      O           0.00006503    -0.00066178    -0.00045572
     42      3      O          -0.00031229    -0.00070887     0.00017891
     43      3      O           0.00034531     0.00023313    -0.00015031
     44      3      O          -0.00015569    -0.00064177     0.00055798
     45      3      O          -0.00046503     0.00054391    -0.00035481
     46      3      O           0.00051889    -0.00131782    -0.00042670
     47      1      Ca          0.00109615    -0.00125757    -0.00061128
     48      1      Ca         -0.00093812    -0.00018832     0.00030808
     49      1      Ca         -0.00084204    -0.00142378    -0.00031796
     50      1      Ca         -0.00216735    -0.00013669    -0.00076126
     51      1      Ca         -0.00047412    -0.00045233    -0.00018134
     52      2      Si         -0.01359728     0.00191608    -0.00581059
     53      2      Si          0.00104173    -0.00060457     0.00055138
     54      2      Si          0.00033919     0.00101308     0.00124199
     55      3      O          -0.00033778     0.00057724    -0.00012613
     56      3      O           0.00257229    -0.00126527     0.00059093
     57      3      O          -0.00047527     0.00000461    -0.00007671
     58      3      O          -0.00069279    -0.00049880    -0.00020761
     59      3      O          -0.00038666    -0.00001601    -0.00017310
     60      3      O          -0.00220534     0.00267313    -0.00172274
     61      3      O          -0.00091006     0.00046853     0.00012647
     62      3      O          -0.00002511    -0.00065241     0.00134320
     63      3      O           0.00007004    -0.00061748     0.00039457
     64      3      O          -0.00354933    -0.00118147    -0.00160904
     65      3      O           0.00002343     0.00086442     0.00036734
     66      3      O          -0.00052683     0.00055030    -0.00003693
     67      3      O           0.00232611     0.00023570     0.00118008
     68      3      O          -0.00011247    -0.00056302    -0.00025399
     69      3      O          -0.00139462    -0.00014564     0.00114139
     70      3      O          -0.00124458     0.00164472     0.00064736
     71      1      Ca         -0.00105722     0.00166248     0.00215749
     72      1      Ca         -0.00003710    -0.00027466    -0.00019763
     73      1      Ca          0.00022611     0.00003605     0.00021014
     74      1      Ca          0.00088022     0.00058160    -0.00038855
     75      2      Si          0.00013937    -0.00133025     0.00024137
     76      2      Si         -0.00247270    -0.00263131    -0.00329750
     77      2      Si         -0.00059816    -0.00094016    -0.00039968
     78      3      O          -0.00996778    -0.00227882    -0.00611027
     79      3      O          -0.00135282    -0.00036109    -0.00005690
     80      3      O          -0.00019186    -0.00019700     0.00066936
     81      3      O           0.00399133     0.00218243    -0.00077736
     82      3      O          -0.00440233     0.00738853     0.00344164
     83      3      O          -0.00039525     0.00023054    -0.00014288
     84      3      O           0.00170538     0.00172770     0.00030815
     85      3      O          -0.00134780     0.00035759     0.00007681
     86      3      O           0.00054074    -0.00024575    -0.00051744
     87      3      O           0.00067409     0.00023783     0.00074739
     88      3      O          -0.00136557    -0.00004514    -0.00042851
     89      3      O          -0.00001937    -0.00077574     0.00106237
     90      3      O           0.00241395     0.00072836    -0.00127819
     91      3      O          -0.00114959    -0.00043340    -0.00017389
     92      3      O           0.00273936     0.00038055    -0.00443958
     93      3      O           0.00107935    -0.00048174    -0.00048717
     94      1      Ca          0.00047717     0.00047797    -0.00024653
     95      4      H          -0.00185373     0.00039719    -0.00156160
     96      4      H          -0.00010046    -0.00039127    -0.00000565
     97      4      H           0.00064731     0.00002412    -0.00017893
     98      4      H           0.00222392    -0.00340121     0.00037204
     99      4      H           0.00144663     0.00201400    -0.00213541
    100      4      H           0.00539683    -0.00112890    -0.00423893
    101      4      H          -0.00008686     0.00004914     0.00022876
    102      4      H           0.00007387    -0.00024662     0.00012295
    103      4      H           0.00090333    -0.00011974    -0.00000078
    104      4      H           0.00123990     0.00011262    -0.00014339
    105      4      H           0.00030652     0.00026632    -0.00004389
    106      4      H           0.00027155    -0.00013510    -0.00005418
    107      4      H           0.00078817     0.00008090    -0.00031934
    108      4      H           0.00028261    -0.00020063     0.00005231
    109      4      H          -0.00077389    -0.00021134    -0.00033676
    110      4      H          -0.00089629     0.00129765    -0.00005022
    111      4      H          -0.00164694    -0.00012690    -0.00106287
    112      4      H          -0.00028652    -0.00024021     0.00029883
    113      4      H           0.00052143    -0.00019723     0.00003357
    114      4      H           0.00032778     0.00037748    -0.00000627
    115      4      H           0.00115770     0.00021872    -0.00051229
    116      4      H           0.00114131    -0.00052388    -0.00046528
    117      4      H           0.00050930    -0.00059532    -0.00011237
    118      4      H           0.00034675     0.00002432     0.00003726
    119      4      H          -0.00103868     0.00013214     0.00050738
    120      4      H          -0.00095330    -0.00092164     0.00058021
    121      4      H           0.00030302    -0.00056496    -0.00013182
    122      4      H          -0.00062917     0.00113072     0.00001304
    123      4      H          -0.00280162     0.00103076     0.00245883
    124      4      H          -0.00133143    -0.00172447     0.00103106
    125      4      H          -0.00076470    -0.00027820    -0.00037588
    126      4      H          -0.00071559     0.00066629     0.00059557
    127      4      H           0.00026598    -0.00027367     0.00015448
    128      4      H           0.00037725     0.00006514    -0.00019178
    129      4      H          -0.00043430    -0.00036823    -0.00034855
    130      4      H           0.00149618     0.00090960     0.00026010
    131      4      H          -0.00012774     0.00017165     0.00044525
    132      4      H          -0.00026795     0.00016812    -0.00005398
    133      4      H          -0.00166561    -0.00121779    -0.00073181
    134      4      H           0.00003081    -0.00026076    -0.00019611
    135      4      H          -0.00161282    -0.00000876     0.00042405
    136      4      H           0.00033376    -0.00004686     0.00013602
    137      4      H          -0.00076873    -0.00017291     0.00018009
    138      4      H          -0.00068531    -0.00017960    -0.00022324
 SUM OF ATOMIC FORCES           0.00453846     0.00042023    -0.00530050     0.00699068

 STRESS| Analytical stress tensor [GPa]
 STRESS|                        x                   y                   z
 STRESS|      x        6.58280852417E-03   4.88141236055E-01   1.33440818901E-01
 STRESS|      y        4.88141236055E-01  -1.79375216481E-01  -6.53857078888E-02
 STRESS|      z        1.33440818901E-01  -6.53857078888E-02   4.16453415298E-02
 STRESS| 1/3 Trace                                            -4.37156888092E-02
 STRESS| Determinant                                          -1.53247955022E-02

 STRESS| Eigenvectors and eigenvalues of the analytical stress tensor [GPa]
 STRESS|                        1                   2                   3
 STRESS| Eigenvalues  -6.11557880426E-01   5.95399171065E-02   4.20870896892E-01
 STRESS|      x          -0.633462875797      0.000155742100      0.773773067980
 STRESS|      y           0.746364587845     -0.263674369069      0.611077514811
 STRESS|      z           0.204119295997      0.964611736835      0.166911683716

 OPT| **************************************************************************
 OPT| Step number                                                              2
 OPT| Optimization method                                                   BFGS
 OPT| Total energy [hartree]                                    -1761.2502188253
 OPT| Effective energy change [hartree]                            -0.0100124825
 OPT| Predicted energy change [hartree]                            -0.0088823382
 OPT| Scaling factor                                                0.0000000000
 OPT| Step size                                                     0.0725387827
 OPT| Trust radius                                                  0.3779452266
 OPT| Decrease in energy                                                     YES
 OPT| Used time [s]                                                       37.717
 OPT|
 OPT| Maximum step size                                             0.0725387827
 OPT| Convergence limit for maximum step size                       0.0030000000
 OPT| Maximum step size is converged                                          NO
 OPT|
 OPT| RMS step size                                                 0.0143848131
 OPT| Convergence limit for RMS step size                           0.0015000000
 OPT| RMS step size is converged                                              NO
 OPT|
 OPT| Maximum gradient                                              0.0139383900
 OPT| Convergence limit for maximum gradient                        0.0004500000
 OPT| Maximum gradient is converged                                           NO
 OPT|
 OPT| RMS gradient                                                  0.0018776952
 OPT| Convergence limit for RMS gradient                            0.0003000000
 OPT| RMS gradient is converged                                               NO
 OPT| **************************************************************************
 OPT| Estimated peak process memory after this step [MiB]                    511

 --------------------------
 OPTIMIZATION STEP:      3
 --------------------------

 Number of electrons:                                                        656
 Number of occupied orbitals:                                                328
 Number of molecular orbitals:                                               328

 Number of orbital functions:                                               1460
 Number of independent orbital functions:                                   1460

 Extrapolation method: ASPC


 SCF WAVEFUNCTION OPTIMIZATION

  ----------------------------------- OT ---------------------------------------
  Minimizer      : DIIS                : direct inversion
                                         in the iterative subspace
                                         using   7 DIIS vectors
                                         safer DIIS on
  Preconditioner : FULL_KINETIC        : inversion of T + eS
  Precond_solver : DEFAULT
  stepsize       :    0.15000000                  energy_gap     :    0.20000000
  eps_taylor     :   0.10000E-15                  max_taylor     :             4
  ----------------------------------- OT ---------------------------------------

  Step     Update method      Time    Convergence         Total energy    Change
  ------------------------------------------------------------------------------
     1 OT DIIS     0.15E+00    1.0     0.00027551     -1761.2421931871 -1.76E+03
     2 OT DIIS     0.15E+00    2.6     0.00017656     -1761.2465658611 -4.37E-03
     3 OT DIIS     0.15E+00    1.7     0.00009754     -1761.2497769669 -3.21E-03
     4 OT DIIS     0.15E+00    1.7     0.00005139     -1761.2512885315 -1.51E-03
     5 OT DIIS     0.15E+00    1.7     0.00003207     -1761.2517531917 -4.65E-04
     6 OT DIIS     0.15E+00    1.7     0.00002247     -1761.2519257451 -1.73E-04
     7 OT DIIS     0.15E+00    1.7     0.00001428     -1761.2520243792 -9.86E-05
     8 OT DIIS     0.15E+00    1.7     0.00000901     -1761.2520643215 -3.99E-05
     9 OT DIIS     0.15E+00    1.7     0.00000622     -1761.2520777595 -1.34E-05
    10 OT DIIS     0.15E+00    1.7     0.00000407     -1761.2520846646 -6.91E-06
    11 OT DIIS     0.15E+00    1.7     0.00000264     -1761.2520878619 -3.20E-06
    12 OT DIIS     0.15E+00    1.7     0.00000182     -1761.2520891318 -1.27E-06
    13 OT DIIS     0.15E+00    1.7     0.00000125     -1761.2520897460 -6.14E-07
    14 OT DIIS     0.15E+00    1.7     0.00000082     -1761.2520900558 -3.10E-07
    15 OT DIIS     0.15E+00    1.7     0.00000059     -1761.2520901691 -1.13E-07
    16 OT DIIS     0.15E+00    1.7     0.00000041     -1761.2520902322 -6.31E-08
    17 OT DIIS     0.15E+00    1.7     0.00000029     -1761.2520902591 -2.69E-08
    18 OT DIIS     0.15E+00    1.7     0.00000022     -1761.2520902722 -1.31E-08
    19 OT DIIS     0.15E+00    1.8     0.00000016     -1761.2520902805 -8.31E-09
    20 OT DIIS     0.15E+00    1.7     0.00000012     -1761.2520902842 -3.71E-09
    21 OT DIIS     0.15E+00    1.7     0.00000009     -1761.2520902863 -2.06E-09

  *** SCF run converged in    21 steps ***


  Electronic density on regular grids:       -655.9999999993        0.0000000007
  Core density on regular grids:              655.9999999997       -0.0000000003
  Total charge density on r-space grids:        0.0000000003
  Total charge density g-space grids:           0.0000000003

  Overlap energy of the core charge distribution:               0.00000059765576
  Self energy of the core charge distribution:              -4144.80997841715816
  Core Hamiltonian energy:                                   1117.17853985951433
  Hartree energy:                                            1613.77120882878671
  Exchange-correlation energy:                               -346.89677009628224
  Dispersion energy:                                           -0.49509105879090

  Total energy:                                             -1761.25209028627478

  outer SCF iter =    1 RMS gradient =   0.89E-07 energy =      -1761.2520902863
  outer SCF loop converged in   1 iterations or   21 steps


 ENERGY| Total FORCE_EVAL ( QS ) energy [a.u.]:            -1761.252090287538522

 ATOMIC FORCES in [a.u.]

 # Atom   Kind   Element          X              Y              Z
      1      1      Ca          0.00048992    -0.00092070    -0.00076000
      2      1      Ca          0.00033739    -0.00032945     0.00051645
      3      1      Ca          0.00013621    -0.00009793     0.00006162
      4      1      Ca         -0.00022101    -0.00085530     0.00052821
      5      2      Si          0.00041988    -0.00033584    -0.00032917
      6      2      Si         -0.00187107     0.00054271     0.00396238
      7      2      Si         -0.00050265     0.00033756     0.00019059
      8      3      O          -0.00124835    -0.00095321    -0.00174316
      9      3      O          -0.00003284    -0.00032427    -0.00024256
     10      3      O           0.00023593     0.00039505     0.00032974
     11      3      O          -0.00100360    -0.00012504    -0.00128400
     12      3      O           0.00248166     0.00209691    -0.00176395
     13      3      O           0.00026710    -0.00056020     0.00025174
     14      3      O           0.00310834    -0.00093440    -0.00025165
     15      3      O           0.00019017    -0.00028859    -0.00011050
     16      3      O           0.00055972     0.00074153     0.00008404
     17      3      O          -0.00029966    -0.00004014    -0.00063073
     18      3      O           0.00020205    -0.00008045    -0.00079945
     19      3      O          -0.00051087    -0.00038477    -0.00033702
     20      3      O           0.00028665    -0.00018262     0.00000478
     21      3      O          -0.00002049     0.00078129     0.00041089
     22      3      O          -0.00257302    -0.00049688     0.00368553
     23      3      O           0.00017037    -0.00008546    -0.00002270
     24      1      Ca          0.00006589     0.00002371    -0.00024268
     25      1      Ca          0.00004750    -0.00020775    -0.00045441
     26      1      Ca         -0.00072842     0.00023838     0.00025984
     27      1      Ca         -0.00011373     0.00009378    -0.00053881
     28      2      Si         -0.00109670     0.00303088     0.00120739
     29      2      Si          0.00068296     0.00008691    -0.00089881
     30      2      Si          0.00090116     0.00010863    -0.00104578
     31      3      O           0.00103003    -0.00026304     0.00024788
     32      3      O           0.00023592    -0.00146958     0.00066816
     33      3      O           0.00063602     0.00141729    -0.00067927
     34      3      O           0.00077361    -0.00025017     0.00161983
     35      3      O          -0.00133929    -0.00070497    -0.00084360
     36      3      O          -0.00149373     0.00071571     0.00068294
     37      3      O          -0.00100199    -0.00162317     0.00173523
     38      3      O          -0.00082104    -0.00042412    -0.00173974
     39      3      O           0.00065292    -0.00052997    -0.00008047
     40      3      O           0.00107367     0.00010182     0.00086127
     41      3      O           0.00083213     0.00054204     0.00000695
     42      3      O           0.00069973    -0.00008571     0.00014644
     43      3      O          -0.00105518    -0.00020953    -0.00028233
     44      3      O          -0.00056297    -0.00031506    -0.00031918
     45      3      O          -0.00044887    -0.00022279     0.00022279
     46      3      O           0.00043263    -0.00072123    -0.00028592
     47      1      Ca         -0.00022958    -0.00004401     0.00007527
     48      1      Ca         -0.00036021    -0.00004381     0.00021271
     49      1      Ca         -0.00049555     0.00053434     0.00008417
     50      1      Ca          0.00018002    -0.00060158     0.00036110
     51      1      Ca         -0.00030188    -0.00013237     0.00014831
     52      2      Si          0.00128336    -0.00028275    -0.00226529
     53      2      Si         -0.00026701    -0.00026046     0.00056905
     54      2      Si         -0.00029689    -0.00024596     0.00204574
     55      3      O          -0.00042371    -0.00006207     0.00016499
     56      3      O          -0.00004402    -0.00048443    -0.00075202
     57      3      O          -0.00032904    -0.00010770    -0.00016072
     58      3      O           0.00003032     0.00067357    -0.00021606
     59      3      O          -0.00012683     0.00064873     0.00054431
     60      3      O           0.00160579    -0.00104429    -0.00028049
     61      3      O           0.00021465     0.00106810    -0.00130518
     62      3      O          -0.00000906    -0.00034650     0.00239491
     63      3      O           0.00121153     0.00004504    -0.00090067
     64      3      O          -0.00068843    -0.00034560    -0.00164245
     65      3      O          -0.00046377    -0.00009966     0.00000657
     66      3      O           0.00039502     0.00038063    -0.00054305
     67      3      O           0.00089962    -0.00013251     0.00025504
     68      3      O           0.00025928    -0.00015289     0.00020134
     69      3      O          -0.00017834    -0.00027612     0.00029526
     70      3      O           0.00005332     0.00095443     0.00043878
     71      1      Ca         -0.00084688     0.00028710     0.00005610
     72      1      Ca         -0.00026125    -0.00011899    -0.00012846
     73      1      Ca         -0.00015493    -0.00011609     0.00006713
     74      1      Ca          0.00017959     0.00051525    -0.00070710
     75      2      Si         -0.00028365     0.00024189    -0.00006897
     76      2      Si          0.00132824    -0.00024038    -0.00448687
     77      2      Si          0.00050620    -0.00120729    -0.00052329
     78      3      O           0.00058967    -0.00018777     0.00125323
     79      3      O           0.00064690     0.00066046    -0.00004453
     80      3      O           0.00024538    -0.00008852    -0.00024790
     81      3      O           0.00245691     0.00030409     0.00200463
     82      3      O           0.00096957    -0.00121486     0.00236955
     83      3      O          -0.00000856     0.00020039     0.00020127
     84      3      O          -0.00153256     0.00128481     0.00026271
     85      3      O          -0.00059148    -0.00020304    -0.00005044
     86      3      O           0.00022100    -0.00036705    -0.00016790
     87      3      O          -0.00010206     0.00069022     0.00071442
     88      3      O           0.00086344     0.00044081     0.00003340
     89      3      O           0.00009374     0.00112954    -0.00063514
     90      3      O           0.00150323     0.00157248     0.00008761
     91      3      O          -0.00068580    -0.00061477     0.00014196
     92      3      O           0.00170219    -0.00003201    -0.00320692
     93      3      O           0.00039456    -0.00070905    -0.00006454
     94      1      Ca          0.00023863    -0.00020298    -0.00014555
     95      4      H          -0.00078674     0.00015705    -0.00033719
     96      4      H           0.00057165    -0.00022836    -0.00007100
     97      4      H           0.00081722    -0.00019678     0.00010952
     98      4      H           0.00110333    -0.00176154     0.00012192
     99      4      H           0.00030067     0.00150988    -0.00173411
    100      4      H           0.00221448    -0.00047501    -0.00267601
    101      4      H          -0.00013980     0.00017394     0.00014049
    102      4      H          -0.00003083     0.00002322     0.00007764
    103      4      H           0.00091124    -0.00013241     0.00031246
    104      4      H           0.00127537     0.00033703    -0.00002441
    105      4      H           0.00045546     0.00042506     0.00007997
    106      4      H           0.00037287    -0.00010971     0.00005310
    107      4      H           0.00067978    -0.00001747    -0.00038501
    108      4      H           0.00014979    -0.00016821     0.00008292
    109      4      H          -0.00022430    -0.00037027    -0.00038923
    110      4      H          -0.00059441     0.00086828     0.00038743
    111      4      H          -0.00061817     0.00006238    -0.00037199
    112      4      H          -0.00009408    -0.00013860     0.00011545
    113      4      H          -0.00023023     0.00002542    -0.00014634
    114      4      H           0.00021910    -0.00012503    -0.00017194
    115      4      H           0.00053229     0.00011769     0.00000210
[...]
 flops    96 x    32 x    50          59185152000       0.0%    100.0%      0.0%     
 flops     5 x    32 x     5          60248320000       0.0%    100.0%      0.0%     
 flops     5 x    13 x    32          63017011200       0.0%    100.0%      0.0%     
 flops    13 x     5 x    32          63017011200       0.0%    100.0%      0.0%     
 flops   104 x    32 x    50          64117248000       0.0%    100.0%      0.0%     
 flops   390 x    32 x    50          64696320000       0.0%    100.0%      0.0%     
 flops    64 x    32 x    62          65235189760       0.0%    100.0%      0.0%     
 flops    14 x    32 x     5          69011712000       0.0%    100.0%      0.0%     
 flops     5 x    32 x    14          69011712000       0.0%    100.0%      0.0%     
 flops   313 x    32 x    57          69057515520       0.0%    100.0%      0.0%     
 flops   421 x    32 x    50          69838848000       0.0%    100.0%      0.0%     
 flops    14 x    13 x    32          72183121920       0.0%    100.0%      0.0%     
 flops    13 x    14 x    32          72183121920       0.0%    100.0%      0.0%     
 flops   336 x    32 x    57          74132029440       0.0%    100.0%      0.0%     
 flops    96 x    32 x    57          78716252160       0.0%    100.0%      0.0%     
 flops    64 x    32 x    50          78913536000       0.0%    100.0%      0.0%     
 flops    14 x    32 x    14          79049779200       0.0%    100.0%      0.0%     
 flops   104 x    32 x    57          85275939840       0.0%    100.0%      0.0%     
 flops   390 x    32 x    57          86046105600       0.0%    100.0%      0.0%     
 flops   421 x    32 x    57          92885667840       0.0%    100.0%      0.0%     
 flops    96 x    32 x    32         102137856000       0.0%    100.0%      0.0%     
 flops    64 x    32 x    57         104955002880       0.0%    100.0%      0.0%     
 flops   104 x    32 x    32         110649344000       0.0%    100.0%      0.0%     
 flops    64 x    32 x    32         136183808000       0.0%    100.0%      0.0%     
 flops   313 x    32 x    32         254935244800       0.0%    100.0%      0.0%     
 flops     5 x    32 x    13         270569728000       0.0%    100.0%      0.0%     
 flops    13 x    32 x     5         270569728000       0.0%    100.0%      0.0%     
 flops   336 x    32 x    32         273668505600       0.0%    100.0%      0.0%     
 flops    13 x    13 x    32         286727400960       0.0%    100.0%      0.0%     
 flops    14 x    32 x    13         309925324800       0.0%    100.0%      0.0%     
 flops    13 x    32 x    14         309925324800       0.0%    100.0%      0.0%     
 flops   390 x    32 x    32         317650944000       0.0%    100.0%      0.0%     
 flops   421 x    32 x    32         342900121600       0.0%    100.0%      0.0%     
 flops    13 x    32 x    13        1215104051200       0.0%    100.0%      0.0%     
 flops inhomo. stacks               1030705678080     100.0%      0.0%      0.0%
 flops total                         7.444493E+12      13.8%     86.2%      0.0%
 flops max/rank                    349.626168E+09      14.9%     85.1%      0.0%
 matmuls inhomo. stacks                   1613700     100.0%      0.0%      0.0%
 matmuls total                          512205716       0.3%     99.7%      0.0%
 number of processed stacks              33491744       4.8%     95.2%      0.0%
 average stack size                                     1.0      16.0       0.0
 marketing flops                     7.850366E+12
 -------------------------------------------------------------------------------
 # multiplications                          16196
 max memory usage/rank             536.797184E+06
 # max total images/rank                       13
 # max 3D layers                                1
 # MPI messages exchanged                32003296
 MPI messages size (bytes):
  total size                         2.124215E+12
  min size                           0.000000E+00
  max size                         381.680000E+03
  average size                      66.374898E+03
 MPI breakdown and total messages size (bytes):
             size <=      128            15516259                        0
       128 < size <=     8192             1290427               8545288192
      8192 < size <=    32768             2060510              28612953600
     32768 < size <=   131072             7018400             428111328000
    131072 < size <=  4194304             6117700            1658378960000
   4194304 < size <= 16777216                   0                        0
  16777216 < size                               0                        0
 -------------------------------------------------------------------------------

 *** WARNING in dbcsr_mm.F:301 :: Using a non-square number of MPI ranks ***
 *** might lead to poor performance. Used ranks: 52 Suggested: 49 100    ***

 -------------------------------------------------------------------------------
 -                                                                             -
 -                      DBCSR MESSAGE PASSING PERFORMANCE                      -
 -                                                                             -
 -------------------------------------------------------------------------------
 ROUTINE             CALLS      AVE VOLUME [Bytes]
 MP_Bcast              113                     12.
 MP_Allreduce        86982                      9.
 MP_Alltoall         54650                  23296.
 MP_ISend          1451852                  30805.
 MP_IRecv          1404634                  30559.
 -------------------------------------------------------------------------------

 -------------------------------------------------------------------------------
 -                                                                             -
 -                                DBM STATISTICS                               -
 -                                                                             -
 -------------------------------------------------------------------------------
    M  x    N  x    K                                          COUNT     PERCENT
 -------------------------------------------------------------------------------

 -------------------------------------------------------------------------------
 -                                                                             -
 -                                GRID STATISTICS                              -
 -                                                                             -
 -------------------------------------------------------------------------------
 LP    KERNEL             BACKEND                              COUNT     PERCENT
 3     collocate general  CPU                               90650590      22.38%
 4     collocate general  CPU                               86935322      21.47%
 3     integrate general  CPU                               86130347      21.27%
 4     integrate general  CPU                               82290623      20.32%
 2     collocate general  CPU                               24705918       6.10%
 2     integrate general  CPU                               23385966       5.77%
 6     integrate general  CPU                                4737869       1.17%
 7     integrate general  CPU                                4543716       1.12%
 5     integrate general  CPU                                1291258       0.32%
 0     collocate general  CPU                                 330096       0.08%
 -------------------------------------------------------------------------------

 MEMORY| Estimated peak process memory [MiB]                                 512

 -------------------------------------------------------------------------------
 -                                                                             -
 -                         MESSAGE PASSING PERFORMANCE                         -
 -                                                                             -
 -------------------------------------------------------------------------------

 ROUTINE             CALLS      AVE VOLUME [Bytes]
 MP_Group                4
 MP_Bcast             6384                 120128.
 MP_Allreduce        21548                    366.
 MP_Sync                95
 MP_Alltoall         20433                2745205.
 MP_SendRecv        140913                  64872.
 MP_ISendRecv       131580                  68832.
 MP_Wait            254796
 MP_comm_split          46
 MP_ISend           112344                 237201.
 MP_IRecv           112344                 237200.
 -------------------------------------------------------------------------------


 -------------------------------------------------------------------------------
 -                                                                             -
 -                           R E F E R E N C E S                               -
 -                                                                             -
 -------------------------------------------------------------------------------
 
 CP2K version 2024.3, the CP2K developers group (2024).
 CP2K is freely available from https://www.cp2k.org/ .
 
 T. D. Kuehne, M. Iannuzzi, M. Del Ben, V. V. Rybkin, P. Seewald, F. Stein, T. 
 Laino, R. Z. Khaliullin, O. Schuett, F. Schiffmann, D. Golze, J. Wilhelm, S. 
 Chulkov, M. H. Bani-Hashemian, V. Weber, U. Borstnik, M. Taillefumier, A. S. 
 Jakobovits, A. Lazzaro, H. Pabst, T. Mueller, R. Schade, M. Guidon, S. 
 Andermatt, N. Holmberg, G. K. Schenter, A. Hehn, A. Bussy, F. Belleflamme, G. 
 Tabacchi, A. Gloess, M. Lass, I. Bethune, C. J. Mundy, C. Plessl, M. Watkins, 
 J. VandeVondele, M. Krack, J. Hutter.
 J. Chem. Phys. 152, 194103 (2020).
 CP2K: An electronic structure and molecular dynamics software package - 
 Quickstep: Efficient and accurate electronic structure calculations.
 https://doi.org/10.1063/5.0007045

 L. Goerigk, A. Hansen, C. Bauer, S. Ehrlich, A. Najibi, S. Grimme.
 Phys. Chem. Chem. Phys. 19, 32184-32215 (2017).
 A look at the density functional theory zoo with the advanced GMTKN55 database 
 for general main group thermochemistry, kinetics and noncovalent interactions.
 https://doi.org/10.1039/C7CP04913G

 O. Schuett, P. Messmer, J. Hutter, J. VandeVondele.
 Electronic Structure Calculations on Graphics Processing Units, 173-190 (2016).
 GPU-Accelerated Sparse Matrix-Matrix Multiplication for Linear Scaling Density 
 Functional Theory.
 https://doi.org/10.1002/9781118670712.ch8

 A. Heinecke, G. Henry, M. Hutchinson, H. Pabst.
 Proceedings of Intl. Supercomputing Conference, 981-991 (2016).
 LIBXSMM: Accelerating Small Matrix Multiplications by Runtime Code Generation.
 https://doi.org/10.1109/SC.2016.83

 J. Hutter, M. Iannuzzi, F. Schiffmann, J. VandeVondele.
 WIREs Comput Mol Sci. 4, 15-25 (2014).
 CP2K: atomistic simulations of condensed matter systems.
 https://doi.org/10.1002/wcms.1159

 U. Borstnik, J. VandeVondele, V. Weber, J. Hutter.
 Parallel Comput. 40, 47-58 (2014).
 Sparse matrix multiplication: The distributed block-compressed sparse row 
 library.
 https://doi.org/10.1016/j.parco.2014.03.012

 A. Marek, V. Blum, R. Johanni, V. Havu, B. Lang, T. Auckenthaler, A. Heinecke, 
 H. Bungartz, H. Lederer.
 J. Phys. Condens. Matter 26, 213201 (2014).
 The ELPA library: scalable parallel eigenvalue solutions for electronic 
 structure theory and computational science.
 https://doi.org/10.1088/0953-8984/26/21/213201

 S. Grimme, S. Ehrlich, L. Goerigk.
 J. Comput. Chem. 32, 1456 (2011).
 Effect of the damping function in dispersion corrected density functional 
 theory.
 https://doi.org/10.1002/jcc.21759

 S. Grimme, J. Antony, S. Ehrlich, H. Krieg.
 J. Chem. Phys. 132, 154104 (2010).
 A consistent and accurate ab initio parametrization of density functional 
 dispersion correction (DFT-D) for the 94 elements H-Pu.
 https://doi.org/10.1063/1.3382344

 J. P. Perdew, A. Ruzsinszky, G. I. Csonka, O. A. Vydrov, G. E. Scuseria, L. A. 
 Constantin, X. Zhou, K. Burke.
 Phys. Rev. Lett. 100, 136406-136409 (2008).
 Restoring the Density-Gradient Expansion for Exchange in Solids and Surfaces.
 https://doi.org/10.1103/PhysRevLett.100.136406

 J. VandeVondele, J. Hutter.
 J. Chem. Phys. 127, 114105 (2007).
 Gaussian basis sets for accurate calculations on molecular systems in gas and 
 condensed phases.
 https://doi.org/10.1063/1.2770708

 T. D. Kühne, M. Krack, F. R. Mohamed, M. Parrinello.
 Phys. Rev. Lett. 98, 066401 (2007).
 Efficient and accurate Car-Parrinello-like approach to Born-Oppenheimer 
 molecular dynamics.
 https://doi.org/10.1103/PhysRevLett.98.066401

 J. VandeVondele, M. Krack, F. Mohamed, M. Parrinello, T. Chassaing, J. Hutter.
 Comput. Phys. Commun. 167, 103-128 (2005).
 QUICKSTEP: Fast and accurate density functional calculations using a mixed 
 Gaussian and plane waves approach.
 https://doi.org/10.1016/j.cpc.2004.12.014

 M. Krack.
 Theor. Chem. Acc. 114, 145-152 (2005).
 Pseudopotentials for H to Kr optimized for gradient-corrected 
 exchange-correlation functionals.
 https://doi.org/10.1007/s00214-005-0655-y

 M. Frigo, S. G. Johnson.
 Proc. IEEE 93, 216-231 (2005).
 The design and implementation of FFTW3.
 https://doi.org/10.1109/JPROC.2004.840301

 J. Kolafa.
 J. Comput. Chem. 25, 335-342 (2004).
 Time-reversible always stable predictor-corrector method for molecular dynamics 
 of polarizable molecules.
 https://doi.org/10.1002/jcc.10385

 J. VandeVondele, J. Hutter.
 J. Chem. Phys. 118, 4365-4369 (2003).
 An efficient orbital transformation method for electronic structure 
 calculations.
 https://doi.org/10.1063/1.1543154

 C. Hartwigsen, S. Goedecker, J. Hutter.
 Phys. Rev. B 58, 3641-3662 (1998).
 Relativistic separable dual-space Gaussian pseudopotentials from H to Rn.
 https://doi.org/10.1103/PhysRevB.58.3641

 G. Lippert, J. Hutter, M. Parrinello.
 Mol. Phys. 92, 477-487 (1997).
 A hybrid Gaussian and plane wave density functional scheme.
 https://doi.org/10.1080/002689797170220

 S. Goedecker, M. Teter, J. Hutter.
 Phys. Rev. B 54, 1703-1710 (1996).
 Separable dual-space Gaussian pseudopotentials.
 https://doi.org/10.1103/PhysRevB.54.1703

 J. P. Perdew, K. Burke, M. Ernzerhof.
 Phys. Rev. Lett. 77, 3865-3868 (1996).
 Generalized gradient approximation made simple.
 https://doi.org/10.1103/PhysRevLett.77.3865


 -------------------------------------------------------------------------------
 -                                                                             -
 -                                T I M I N G                                  -
 -                                                                             -
 -------------------------------------------------------------------------------
 SUBROUTINE                       CALLS  ASD         SELF TIME        TOTAL TIME
                                MAXIMUM       AVERAGE  MAXIMUM  AVERAGE  MAXIMUM
 CP2K                                 1  1.0    0.012    0.015 1621.290 1621.292
 cp_geo_opt                           1  2.0    0.000    0.000 1620.947 1620.949
 geoopt_bfgs                          1  3.0    0.016    0.020 1620.947 1620.949
 cp_eval_at                          46  4.0    0.008    0.029 1619.040 1619.058
 qs_forces                           45  5.0    0.011    0.012 1600.567 1600.569
 qs_energies                         46  6.0    0.004    0.005 1498.822 1498.844
 scf_env_do_scf                      46  7.0    0.003    0.005 1439.237 1439.240
 scf_env_do_scf_inner_loop          815  8.0    0.021    0.101 1390.674 1390.893
 rebuild_ks_matrix                  860  9.8    0.004    0.004  847.353  848.108
 qs_ks_build_kohn_sham_matrix       860 10.8    0.160    0.174  847.350  848.104
 qs_ks_update_qs_env                864  9.0    0.007    0.010  759.163  759.802
 sum_up_and_integrate               860 11.8    0.022    0.038  640.565  640.813
 integrate_v_rspace                 860 12.8    0.041    0.072  639.912  640.327
 qs_rho_update_rho_low              861  9.0    0.004    0.006  639.856  640.275
 calculate_rho_elec                 861 10.0    0.442    0.520  639.852  640.270
 grid_collocate_task_list           861 11.0  517.187  533.292  517.187  533.292
 grid_integrate_task_list           860 13.8  512.472  529.807  512.472  529.807
 fft_wrap_pw1pw2                  14671 14.2    0.625    0.704  182.063  191.490
 fft_wrap_pw1pw2_250               9508 15.6    9.200    9.733  169.245  177.246
 qs_vxc_create                      860 11.8    0.045    0.059  150.572  153.573
 xc_vxc_pw_create                   860 12.8    3.898    4.623  150.527  153.539
 fft3d_ps                         14671 16.2   71.185   79.729  140.133  152.334
 density_rs2pw                      861 11.0    0.084    0.106  119.736  142.665
 xc_pw_derive                      5160 14.8    0.138    0.172  108.952  119.855
 transfer_rs2pw                    3490 12.0    0.064    0.089   81.761  103.786
 potential_pw2rs                    860 13.8    0.109    0.126  100.424  100.788
 mp_waitany                      112344 15.3   73.043   95.128   73.043   95.128
 transfer_rs2pw_250                 907 12.9   13.061   16.280   70.222   92.192
 qs_ks_update_qs_env_forces          45  6.0    0.000    0.000   88.603   89.142
 dbcsr_multiply_generic           16196 14.0    0.879    1.054   84.603   85.959
 transfer_pw2rs                    3485 14.8    0.062    0.077   83.030   83.136
 mp_alltoall_z22v                 14671 18.2   47.180   80.818   47.180   80.818
 xc_pw_divergence                   860 13.8    0.071    0.090   73.230   80.358
 xc_rho_set_and_dset_create         860 13.8    1.939    2.373   70.747   72.413
 qs_scf_new_mos                     815  9.0    0.004    0.007   70.612   71.311
 qs_scf_loop_do_ot                  815 10.0    0.005    0.007   70.608   71.307
 transfer_pw2rs_250                 905 15.6   33.262   34.255   66.316   68.279
 ot_scf_mini                        815 11.0    0.025    0.026   66.124   66.872
 yz_to_x                           5208 17.4    7.408    9.430   33.238   52.735
 mp_alltoall_d11v                 11828 15.0   27.754   51.628   27.754   51.628
 rs_gather_matrices                 860 13.8    0.167    0.256   26.842   50.814
 init_scf_loop                       49  8.0    0.001    0.002   48.289   48.292
 ot_mini                            815 12.0    0.006    0.006   45.636   46.341
 multiply_cannon                  16196 15.0    1.852    2.016   40.396   42.735
 init_scf_run                        46  7.0    0.001    0.002   39.369   39.373
 scf_env_initial_rho_setup           46  8.0    0.001    0.001   39.368   39.372
 mp_waitall_1                   2215540 18.0   25.520   38.766   25.520   38.766
 wfi_extrapolate                     46  9.0    0.005    0.006   38.561   38.561
 x_to_yz                           6021 17.4   10.678   12.495   31.111   38.484
 qs_ot_get_derivative               815 13.0    0.007    0.008   37.020   37.749
 multiply_cannon_loop             16196 16.0    2.317    2.993   33.146   35.372
 make_m2s                         32392 15.0    0.755    0.808   31.630   32.780
 -------------------------------------------------------------------------------

 The number of warnings for this run is : 1
 
 -------------------------------------------------------------------------------
  **** **** ******  **  PROGRAM ENDED AT                 2025-01-16 09:38:54.514
 ***** ** ***  *** **   PROGRAM RAN ON                               ubuntu-GPU2
 **    ****   ******    PROGRAM RAN BY                                       zkm
 ***** **    ** ** **   PROGRAM PROCESS ID                               3482618
  **** **  *******  **  PROGRAM STOPPED IN /home/zkm/CP2K/Generate_dataset/Jenni
                                           te/Elastic/elastic_cp2k/example/epsil
                                           onxy/neg
