     138
 i =        1, E =     -1761.2402063428
 Ca        -0.7533250016        1.3909328594        3.6909442669
 Ca         2.5246699429        4.5789839011        3.2899790931
 Ca        -1.8747962957        4.8558210220        3.9497502029
 Ca         3.4730057844        0.9455130296        3.5187793099
 Si         5.9583746407        5.8087577450        1.9729353073
 Si         6.7407605250        0.6518494939        3.7804988695
 Si         5.5321831523        3.4917515333        3.9349816649
  O         4.8482859801       13.0360756281        2.6107078212
  O         0.3504624756        5.5537983374        3.5366033348
  O         5.5212025880       -0.2739038253        4.3285664591
  O         7.8592939586        0.8548542654        4.9449822105
  O         7.4377524669        0.1686680056        2.3737856254
  O         5.2581317565        4.4593990790        2.6232121906
  O         6.0303592072        2.0576691904        3.3066107364
  O         5.9890549292        5.6818109361        0.3654788210
  O         4.0192876288        3.1887398704        4.4489094830
  O         6.6326956862        4.0991426876        4.9572329355
  O         1.4606802739        2.3141387757        3.3104081225
  O        -1.3873537432        3.1885657358        2.3894733071
  O         4.0174563819        0.8334996442        1.2198943980
  O         4.4963249833       -0.9795255379        9.3179504233
  O         8.3115299468       -1.7194686196        9.4392922580
  O         6.1337705744        1.0074211048        9.3964391343
 Ca         7.6906199181        2.5999116870        6.5848721523
 Ca         4.4491969545       -0.6115835485        6.9493459205
 Ca         8.7892958763       -0.8188077122        6.4164484679
 Ca         3.4839986605        2.9802566618        6.6140481412
 Si         1.0521668002       -1.8041900496        8.3069488118
 Si         0.2817214490        3.4178311499        6.3979749963
 Si         1.4009344323        0.5139627737        6.3606645959
  O        -2.8669760754        4.6525928031        7.6902105125
  O         6.6153557870       -1.5553406282        6.6249528822
  O         1.4869995441        4.3215510452        5.7865311516
  O        -0.9328919927        3.1507460222        5.3691843718
  O        -0.2583840260        3.9968474415        7.8355232604
  O         1.5827252810       -0.3282935503        7.7693418348
  O         1.0157517563        2.0294473823        6.9218354523
  O         1.0500686151       -1.7878259596        9.9194971174
  O         2.9052856174        0.6974239869        5.7788617136
  O         0.2707698960       -0.0780869734        5.3661828829
  O         5.4885469801        1.6328875636        6.9098900036
  O        -1.7295968200        1.0078864370        7.9051975283
  O         3.4970942489        3.7934494853        8.8222711873
  O         2.5562046438        5.2107990171        1.0554204183
  O        -1.3312496475        5.5726850586        0.7073213894
  O         0.9721498908        3.0453754476        0.7152367767
 Ca         9.2579228534        3.3533491498        0.0259956879
 Ca        -3.2127924529        8.2505338533        3.6843171668
 Ca         0.0492858481       11.4539081609        3.2876269338
 Ca        -4.3634683590       11.7267695824        3.9555579320
 Ca         0.9792090080        7.8166509420        3.5182547210
 Si         3.4795218251       12.6734740999        1.9844841828
 Si         4.2491569415        7.5213053028        3.7988526820
 Si         3.0565464639       10.3622964730        3.9304079807
  O         7.4165768041        6.1593254589        2.5990455456
  O        -2.1529346109       12.4105327794        3.5398603773
  O         3.0289646185        6.5814630252        4.3217435742
  O         5.3873659680        7.7274895211        4.9404356954
  O         4.9483664696        7.0488793123        2.3886530719
  O         2.7706402895       11.3181836977        2.6151464056
  O         3.5605525315        8.9285120169        3.3054033197
  O         3.5065407338       12.5523336141        0.3732554100
  O         1.5488492484       10.0534599964        4.4535869178
  O         4.1490203814       10.9680680703        4.9629290307
  O        -1.0111877894        9.1843017915        3.3102837079
  O        -3.8655624019       10.0681471977        2.3924575785
  O         1.5414203791        7.7084441541        1.2090606757
  O         1.9991666332        5.8788166000        9.2602677203
  O         5.8287431010        5.1448113465        9.4530174456
  O         3.6544067406        7.8527810332        9.4119084466
 Ca         5.2311491746        9.4584452023        6.5789648623
 Ca         1.9880772983        6.2715904630        6.9073444209
 Ca         6.3054472738        6.0466333569        6.4298903674
 Ca         0.9942232682        9.8535974928        6.6210493457
 Si        -1.4240797758        5.0624336512        8.3199004753
 Si        -2.2073368779       10.2897745900        6.4151247259
 Si        -1.0707214614        7.3850203340        6.3557937078
  O        -5.3819714761       11.5133519464        7.6813454085
  O         4.1197887011        5.2928307625        6.6249236385
  O        -1.0071942394       11.1840228360        5.7781614510
  O        -3.4060398977       10.0247751335        5.3641525615
  O        -2.7431065068       10.8867683514        7.8472614582
  O        -0.9019604519        6.5317382667        7.7601016684
  O        -1.4552007853        8.9011459123        6.9175683548
  O        -1.4412290203        5.0793239548        9.9313628291
  O         0.4366590799        7.5667982928        5.7797707811
  O        -2.2065967118        6.7909770234        5.3692400355
  O         3.0239285567        8.5050108594        6.9124326387
  O        -4.2046695627        7.8857218727        7.9080567482
  O         1.0038546891       10.6615055004        8.8186661008
  O         0.0828322118       12.0839093081        1.0536854905
  O        -3.7970304408       12.4347087962        0.7192446109
  O        -1.5035414361        9.9155120572        0.7148270339
 Ca         6.7914992389       10.1998814910        0.0186088482
  H         3.1828895510        0.8666698722        0.5941849194
  H         4.6568340701        1.3615080013        0.6596845148
  H         5.1696013590       -0.2371506012        9.5241835052
  H         5.0215299554       -1.8421519330        9.2851526198
  H         8.1407125561       -2.5820695281        9.9842522920
  H         9.1127730632       -1.9787177390        8.8861368474
  H         5.6739924518        1.8243688595        9.9122731251
  H         6.0085073503        1.2220291653        8.4176884406
  H         3.8906928708        3.2803851951        9.6417169823
  H         4.2403553959        4.4481768536        8.6850909413
  H         1.9483990593        4.5318877075        0.6460626770
  H         2.1162434764        6.1115188657        0.9704376716
  H        -2.0522348190        5.8393580350        1.3524110549
  H        -1.0226367575        6.4526122881        0.3047743005
  H         1.0538349033        2.8072955167        1.6853287052
  H         1.4127249905        2.1966159580        0.2643712847
  H         0.6998904214        7.7366474711        0.5862096759
  H         2.1861370741        8.2242246730        0.6443649225
  H         2.6686548345        6.6162840452        9.4935973044
  H         2.5138608569        5.0045967969        9.2437173047
  H         5.6419951722        4.2864094860        9.9850358367
  H         6.6243253517        4.8919478027        8.8741634598
  H         3.1931722635        8.6744258585        9.9228881774
  H         3.5390626689        8.0728087285        8.4335437988
  H         1.4128473962       10.1503185669        9.6313831168
  H         1.7428838673       11.3255413446        8.6878514997
  H        -0.5246324548       11.4040876150        0.6455040298
  H        -0.3681710557       12.9770682000        0.9741281222
  H        -4.5306793266       12.7103978731        1.3360547947
  H        -3.5124742926       13.3218316709        0.3004155743
  H        -1.4156760573        9.6754154132        1.6835747292
  H        -1.0617477270        9.0670580217        0.2646996948
  H         0.5616755780        5.3511612301        4.4818398709
  H         1.3448911333        2.7057776425        4.2056738682
  H        -0.5350697921        3.6823870804        2.3947379902
  H         6.3933497756       -1.3311822809        5.6847475663
  H         5.6948426379        1.2395818071        6.0298567806
  H        -0.8101639272        1.3533932611        7.9352991146
  H        -1.9046914967       12.2206895831        4.4796028574
  H        -1.1252958628        9.5735875925        4.2065196735
  H        -3.0059507518       10.5501075291        2.3928426782
  H         3.9415312799        5.5187910156        5.6776077879
  H         3.2298817276        8.1261334010        6.0262868451
  H        -3.2829785246        8.2249157280        7.9395696171
     138
 i =        2, E =     -1761.2502188253
 Ca        -0.7404085925        1.3963133837        3.6983898484
 Ca         2.5210893532        4.5781505374        3.2868060206
 Ca        -1.8720555088        4.8613581243        3.9482990378
 Ca         3.4828211573        0.9382675964        3.5229300045
 Si         5.9632388248        5.8117779763        1.9751888740
 Si         6.7409157015        0.6478667312        3.7815794537
 Si         5.5348386146        3.4896436887        3.9337440185
  O         4.8709298734       13.0420120630        2.6135050223
  O         0.3506749166        5.5542734174        3.5361937276
  O         5.5239947883       -0.2892903442        4.3197862738
  O         7.8739739332        0.8705203823        4.9292013427
  O         7.4621111914        0.1728149773        2.3847054876
  O         5.2674310091        4.4604482822        2.6229056831
  O         6.0319960309        2.0554690765        3.3028956866
  O         5.9921786256        5.6815926330        0.3678698125
  O         4.0195181851        3.1910572789        4.4480633738
  O         6.6391860751        4.0924499536        4.9565244912
  O         1.4535214713        2.3112137443        3.3089979870
  O        -1.3901136995        3.1904210218        2.3923973733
  O         4.0165436221        0.8381532985        1.2174951571
  O         4.5124052267       -0.9912227196        9.3134780546
  O         8.3315268405       -1.7227367623        9.4346235549
  O         6.1345155287        1.0044573756        9.3961355102
 Ca         7.6821031539        2.5907847071        6.5875816691
 Ca         4.4543403558       -0.6094441903        6.9515682947
 Ca         8.8094231953       -0.8228475856        6.4096995909
 Ca         3.4807133863        2.9752579096        6.6143155609
 Si         1.0905526707       -1.8030606286        8.3061806365
 Si         0.2769548680        3.4187560182        6.3971139639
 Si         1.4088070434        0.5195990692        6.3502666988
  O        -2.8633038606        4.6487802781        7.6909070994
  O         6.6283644600       -1.5368691661        6.6252247711
  O         1.4782142500        4.3236582402        5.7810206490
  O        -0.9477268382        3.1550434184        5.3771717550
  O        -0.2606173154        3.9925061374        7.8372364049
  O         1.5832297657       -0.3179272634        7.7603940358
  O         1.0053000915        2.0273456947        6.9184782286
  O         1.0609529518       -1.7822396964        9.9177854197
  O         2.9186881901        0.7021419481        5.7852367628
  O         0.2707916829       -0.0781286377        5.3700000546
  O         5.4882808183        1.6323844509        6.9099885904
  O        -1.7328965312        1.0177182116        7.9038550142
  O         3.5095073365        3.7915756675        8.8201540711
  O         2.5627297064        5.2110829738        1.0523944874
  O        -1.3238383494        5.5750797549        0.7081634940
  O         0.9609140357        3.0442134142        0.7145631475
 Ca         9.2541298642        3.3525184364        0.0227828145
 Ca        -3.2147795125        8.2558803026        3.6807307200
 Ca         0.0332225940       11.4495508717        3.2818708827
 Ca        -4.3760281491       11.7334081387        3.9525857596
 Ca         0.9784483991        7.8171962751        3.5195729392
 Si         3.4434174035       12.6791912305        1.9836274773
 Si         4.2464259840        7.5191947842        3.7979433420
 Si         3.0418084832       10.3579586029        3.9341612374
  O         7.4223984614        6.1617434336        2.5989188035
  O        -2.1722509797       12.3906469949        3.5383437000
  O         3.0286800787        6.5771112926        4.3233258151
  O         5.3870403293        7.7257382543        4.9374260125
  O         4.9488603950        7.0493363302        2.3880581657
  O         2.7523197042       11.3170386832        2.6209720754
  O         3.5565947148        8.9275471595        3.3080710244
  O         3.5011915146       12.5555835445        0.3711096536
  O         1.5290778454       10.0566094066        4.4502919798
  O         4.1360952055       10.9679845024        4.9624096072
  O        -1.0154140204        9.1834213259        3.3111660684
  O        -3.8755867156       10.0603902634        2.3949888497
  O         1.5387664636        7.7083485091        1.2092174485
  O         2.0056350978        5.8792871167        9.2590055745
  O         5.8375595758        5.1429404476        9.4519327023
  O         3.6595787194        7.8528380075        9.4134156201
 Ca         5.2079828685        9.4512591326        6.5716087389
 Ca         1.9856970214        6.2721378609        6.9062582235
 Ca         6.3083859757        6.0453563726        6.4279049840
 Ca         0.9825776472        9.8592154353        6.6213116808
 Si        -1.4204746074        5.0661742643        8.3199471693
 Si        -2.2157534245       10.2910799813        6.4076401062
 Si        -1.0768168030        7.3873183397        6.3563498921
  O        -5.4022933752       11.5034550533        7.6834638774
  O         4.1235095743        5.2896540374        6.6246845356
  O        -1.0096313048       11.1848315672        5.7808138477
  O        -3.4365695598       10.0111752736        5.3838881650
  O        -2.7625915722       10.8985962679        7.8290173614
  O        -0.8988584907        6.5359418733        7.7602287702
  O        -1.4726541673        8.8996724354        6.9224520531
  O        -1.4308868653        5.0812705397        9.9312711658
  O         0.4306972159        7.5771707410        5.7845027101
  O        -2.2096490675        6.7920552057        5.3664677573
  O         3.0229640045        8.5020859276        6.9151561225
  O        -4.2053263028        7.8878433818        7.9041482745
  O         0.9768327929       10.6642901203        8.8275934035
  O         0.0824483281       12.0884496464        1.0515551729
  O        -3.7968552667       12.4400735781        0.7233519933
  O        -1.5140690182        9.9140056316        0.7157385116
 Ca         6.7809984909       10.2018589048        0.0279423674
  H         3.1838115837        0.8590820959        0.5911316634
  H         4.6603957328        1.3643726751        0.6603977253
  H         5.1746237012       -0.2381979854        9.5230547152
  H         5.0430211638       -1.8464546671        9.2875812326
  H         8.1639927585       -2.5800506655        9.9969366343
  H         9.1352843147       -1.9686078419        8.8873469897
  H         5.6784748122        1.8240359498        9.9131201640
  H         6.0081817713        1.2199143192        8.4175966183
  H         3.8986647462        3.2823597413        9.6412306194
  H         4.2486771906        4.4501377782        8.6882098748
  H         1.9520015229        4.5309368071        0.6476642440
  H         2.1192826633        6.1109893165        0.9725963651
  H        -2.0499759472        5.8375241071        1.3501472789
  H        -1.0214699234        6.4551889579        0.3008812815
  H         1.0518839495        2.8061696458        1.6841652049
  H         1.4107710476        2.2008461280        0.2636082787
  H         0.6986620239        7.7357948765        0.5871865210
  H         2.1823440506        8.2242656798        0.6431427728
  H         2.6765472843        6.6148634937        9.4940291316
  H         2.5201562015        5.0050698174        9.2439873026
  H         5.6448752811        4.2868904877        9.9876802872
  H         6.6316473645        4.8935264151        8.8702559773
  H         3.1992609375        8.6744319522        9.9232560849
  H         3.5398356414        8.0739526966        8.4360483910
  H         1.3933551147       10.1464367865        9.6281101325
  H         1.7148496168       11.3322777839        8.6947504965
  H        -0.5236470365       11.4053452732        0.6457878351
  H        -0.3822809003       12.9741261633        0.9746028900
  H        -4.5399189254       12.6992782975        1.3307471156
  H        -3.5214013836       13.3237648408        0.2899530036
  H        -1.4203716097        9.6778074677        1.6853158444
  H        -1.0674427021        9.0683356370        0.2627363494
  H         0.5647519203        5.3513783222        4.4808997595
  H         1.3465408446        2.7030900551        4.2050314760
  H        -0.5350187620        3.6802367914        2.3926346643
  H         6.4032751250       -1.3192649166        5.6852690715
  H         5.6930538470        1.2368182538        6.0299367626
  H        -0.8101897368        1.3534206585        7.9346444072
  H        -1.9101582397       12.2106159529        4.4770360370
  H        -1.1262388798        9.5771323913        4.2064572183
  H        -3.0186116979       10.5493328952        2.3962878789
  H         3.9439573525        5.5197476188        5.6784096320
  H         3.2255159702        8.1279548293        6.0262981125
  H        -3.2829025547        8.2248554481        7.9390922141
     138
 i =        3, E =     -1761.2520902875
 Ca        -0.7357345115        1.3915982487        3.6909358437
 Ca         2.5191302370        4.5765349890        3.2858301300
 Ca        -1.8711497711        4.8603943578        3.9487342262
 Ca         3.4778179335        0.9349947046        3.5175365807
 Si         5.9653835343        5.8115546726        1.9763825478
 Si         6.7495873277        0.6534642264        3.7849574833
 Si         5.5375691187        3.4899064886        3.9318813998
  O         4.8877535131       13.0379173271        2.6114349399
  O         0.3499772794        5.5580596122        3.5366234303
  O         5.5270885082       -0.2864018531        4.3064611534
  O         7.8780430900        0.8637035305        4.9378657125
  O         7.4776976474        0.1708264727        2.3921396426
  O         5.2710609190        4.4580678755        2.6197786759
  O         6.0249073139        2.0517034443        3.2996567780
  O         5.9954838227        5.6823214355        0.3691310100
  O         4.0222280793        3.1866951075        4.4460105231
  O         6.6425203223        4.0897963625        4.9556508653
  O         1.4649823995        2.3121134292        3.3116899980
  O        -1.3949194860        3.1935509271        2.3927797394
  O         4.0195487021        0.8360696931        1.2187863827
  O         4.5216875578       -0.9956931248        9.3156071971
  O         8.3335897641       -1.7217044120        9.4392468917
  O         6.1335900479        1.0046293379        9.3967163931
 Ca         7.6849786694        2.5906213190        6.5896372452
 Ca         4.4603679193       -0.6068996112        6.9533903647
 Ca         8.8219199368       -0.8283868326        6.4199019506
 Ca         3.4813059366        2.9805403322        6.6150679873
 Si         1.0991788218       -1.8083492603        8.3089151292
 Si         0.2741424341        3.4212665179        6.3984228731
 Si         1.4104686293        0.5198882493        6.3536234505
  O        -2.8617392326        4.6520853247        7.6900870760
  O         6.6270937720       -1.5222254676        6.6293805099
  O         1.4781225662        4.3235962149        5.7844110850
  O        -0.9415643372        3.1546513736        5.3690281477
  O        -0.2544341758        3.9974592900        7.8405162099
  O         1.5845580277       -0.3245733576        7.7594895663
  O         1.0187712664        2.0346950145        6.9102545123
  O         1.0615985885       -1.7820107794        9.9191704992
  O         2.9179365357        0.7023201566        5.7815200066
  O         0.2814518471       -0.0756029142        5.3634775293
  O         5.4870264518        1.6297706065        6.9098706044
  O        -1.7348391669        1.0164252886        7.9043532071
  O         3.5169903778        3.7933240293        8.8202628340
  O         2.5643960740        5.2090624443        1.0547668506
  O        -1.3229114996        5.5756764082        0.7048140045
  O         0.9578724910        3.0427735738        0.7136773865
 Ca         9.2586313807        3.3461545526        0.0188429885
 Ca        -3.2203988343        8.2567635096        3.6814253650
 Ca         0.0252815172       11.4406589608        3.2794195908
 Ca        -4.3908807217       11.7342301058        3.9471019976
 Ca         0.9751422729        7.8153300624        3.5189103707
 Si         3.4343930132       12.6839113522        1.9793023521
 Si         4.2459625667        7.5182777020        3.7975098656
 Si         3.0309194348       10.3611816173        3.9263711106
  O         7.4239262919        6.1649912952        2.5992299102
  O        -2.1657613162       12.3781264448        3.5359005315
  O         3.0274566823        6.5763022637        4.3223704796
  O         5.3847268870        7.7227590599        4.9390229565
  O         4.9474047492        7.0474875617        2.3869181680
  O         2.7331969987       11.3278458161        2.6182953571
  O         3.5513512965        8.9270908211        3.3113121556
  O         3.4977066538       12.5566883131        0.3681267531
  O         1.5226908757       10.0540663417        4.4513015836
  O         4.1188844168       10.9661855813        4.9614140340
  O        -1.0166664050        9.1866794011        3.3113184527
  O        -3.8848087911       10.0601407889        2.3954997757
  O         1.5397492641        7.7085631720        1.2100550981
  O         2.0076480465        5.8784378060        9.2575437337
  O         5.8385464480        5.1424134888        9.4523931230
  O         3.6572760441        7.8559073261        9.4145871220
 Ca         5.1975723264        9.4567405808        6.5809991504
 Ca         1.9839850173        6.2710410830        6.9045847852
 Ca         6.3087229385        6.0452236442        6.4285782814
 Ca         0.9841589022        9.8644468287        6.6199306845
 Si        -1.4192288159        5.0657960707        8.3222782397
 Si        -2.2232233077       10.2876764087        6.4074291742
 Si        -1.0775028925        7.3889453869        6.3573071679
  O        -5.4143116712       11.5052618207        7.6739539543
  O         4.1185248043        5.2869084711        6.6251321132
  O        -1.0146279463       11.1822849508        5.7874261345
  O        -3.4359239032       10.0172529655        5.3738058784
  O        -2.7625055449       10.9204223869        7.8232412004
  O        -0.9008493881        6.5362291371        7.7603728292
  O        -1.4658548076        8.9039103909        6.9246773090
  O        -1.4334514838        5.0829942749        9.9333718239
  O         0.4297689332        7.5776667383        5.7838315756
  O        -2.2088308875        6.7920572814        5.3672426627
  O         3.0133925414        8.5009183920        6.9145180111
  O        -4.2072020179        7.8838499039        7.9086731446
  O         0.9760382687       10.6616329891        8.8238066403
  O         0.0753360406       12.0909375917        1.0501880811
  O        -3.7995800454       12.4402493707        0.7167636319
  O        -1.5136123657        9.9161856151        0.7148532457
 Ca         6.7810870854       10.2051089296        0.0296075489
  H         3.1852584176        0.8588500246        0.5902595086
  H         4.6612240834        1.3630735916        0.6603586512
  H         5.1801606857       -0.2382008083        9.5219561941
  H         5.0536987968       -1.8530073086        9.2910640691
  H         8.1760282697       -2.5819512266        9.9964470840
  H         9.1421609762       -1.9623421783        8.8855587197
  H         5.6791674035        1.8244249914        9.9147920139
  H         6.0084069671        1.2180265943        8.4176483745
  H         3.9058444101        3.2827860872        9.6399590559
  H         4.2573531143        4.4503069793        8.6883346485
  H         1.9537261806        4.5307843614        0.6471733622
  H         2.1221303104        6.1095686354        0.9729977410
  H        -2.0464328551        5.8385109755        1.3492225767
  H        -1.0192488729        6.4559335290        0.2997197483
  H         1.0467881284        2.8040291133        1.6833411731
  H         1.4080707934        2.2033328306        0.2595845191
  H         0.6968009030        7.7343993672        0.5878225461
  H         2.1818364899        8.2244862774        0.6430553145
  H         2.6807875507        6.6119824328        9.4939054350
  H         2.5247578125        5.0062157072        9.2439024980
  H         5.6519877476        4.2850565219        9.9872856082
  H         6.6343652537        4.8927462268        8.8709302001
  H         3.2011722873        8.6760781351        9.9260891341
  H         3.5419040773        8.0748098649        8.4360573387
  H         1.3817885297       10.1462884466        9.6300502771
  H         1.7086732208       11.3355261713        8.6989628622
  H        -0.5227249622       11.4011001444        0.6442489884
  H        -0.3890016506       12.9771658834        0.9749399093
  H        -4.5430094213       12.6962964642        1.3288347038
  H        -3.5286081541       13.3247955048        0.2882944177
  H        -1.4262393336        9.6764253436        1.6839111079
  H        -1.0714494954        9.0688845394        0.2638637924
  H         0.5669008299        5.3500980616        4.4799622690
  H         1.3489976074        2.7037868532        4.2060723212
  H        -0.5367380327        3.6779361360        2.3898914864
  H         6.4149419315       -1.3099972751        5.6859610895
  H         5.6924571174        1.2357550514        6.0296784236
  H        -0.8127701670        1.3541567571        7.9340582552
  H        -1.9204484579       12.1989714125        4.4777118296
  H        -1.1266484800        9.5775243616        4.2076760518
  H        -3.0290630264       10.5507917699        2.3999000851
  H         3.9464616574        5.5199781811        5.6784022385
  H         3.2197527230        8.1270386248        6.0265529472
  H        -3.2859743731        8.2242236471        7.9375811409
     138
 i =        4, E =     -1761.2526275450
 Ca        -0.7331769820        1.3863618035        3.6855328368
 Ca         2.5201931511        4.5748060639        3.2874487436
 Ca        -1.8705463610        4.8593770884        3.9494911892
 Ca         3.4760038279        0.9310783900        3.5179496696
 Si         5.9648513094        5.8112592980        1.9765190326
 Si         6.7497730891        0.6520522152        3.7877532335
 Si         5.5386743019        3.4883028887        3.9306716989
  O         4.8914313857       13.0336273804        2.6051786207
  O         0.3504270797        5.5570412104        3.5362078809
  O         5.5252018688       -0.2853816938        4.3080458645
  O         7.8777314934        0.8616941454        4.9393224641
  O         7.4897987497        0.1813077961        2.3942667980
  O         5.2726348368        4.4560630623        2.6186927215
  O         6.0351354549        2.0528286082        3.2982016284
  O         5.9969791159        5.6819823808        0.3693284711
  O         4.0232979570        3.1885017889        4.4461684348
  O         6.6427298001        4.0900939966        4.9535316137
  O         1.4683105910        2.3128537882        3.3107259322
  O        -1.3981888538        3.1920211770        2.3911195693
  O         4.0193499652        0.8350925874        1.2174252926
  O         4.5266296822       -0.9975158585        9.3173941406
  O         8.3345984570       -1.7195482112        9.4450144457
  O         6.1341371755        1.0047765142        9.3969330719
 Ca         7.6859967809        2.5907713110        6.5887626302
 Ca         4.4624537971       -0.6076528457        6.9522830379
 Ca         8.8208480601       -0.8282875666        6.4232507162
 Ca         3.4807971996        2.9823913653        6.6134939105
 Si         1.1021555537       -1.8058178308        8.3087593886
 Si         0.2804625801        3.4213743988        6.3978214229
 Si         1.4150250805        0.5210230397        6.3526755588
  O        -2.8598033370        4.6515209778        7.6902337687
  O         6.6274816085       -1.5253855741        6.6304188440
  O         1.4802873040        4.3287887313        5.7817150594
  O        -0.9375807748        3.1526960794        5.3726658972
  O        -0.2585883277        3.9948653288        7.8368143514
  O         1.5791875499       -0.3189726091        7.7622081283
  O         1.0157037323        2.0313977256        6.9160001780
  O         1.0590276486       -1.7827876893        9.9178722609
  O         2.9223553380        0.7000654602        5.7792685381
  O         0.2867325709       -0.0759880001        5.3636943884
  O         5.4906381713        1.6318915963        6.9100957060
  O        -1.7334005373        1.0145543388        7.9053030733
  O         3.5182452869        3.7939597753        8.8201614499
  O         2.5641877162        5.2079672328        1.0558308186