     138
 i =        1, E =     -1761.2508595032
 Ca        -0.7433453309        1.3805738841        3.6797596851
 Ca         2.5243783280        4.5789122149        3.2919999906
 Ca        -1.8753213411        4.8568230676        3.9476970084
 Ca         3.4537602687        0.9416716167        3.5222361723
 Si         5.9554778590        5.8126759669        1.9740169980
 Si         6.7212596195        0.6527526782        3.7979409904
 Si         5.5336739909        3.4969505346        3.9323311585
  O         4.9408737368       13.0343379713        2.6014625495
  O         0.3505745643        5.5401187723        3.5353132324
  O         5.4996712317       -0.2886261967        4.3179041001
  O         7.8681642500        0.8490343247        4.9346645965
  O         7.4208860617        0.1879238256        2.3845993654
  O         5.2477432660        4.4688444282        2.6263737845
  O         6.0448552577        2.0673999843        3.3043193563
  O         5.9938549033        5.6510922148        0.3696159335
  O         4.0256642891        3.1790685769        4.4491579069
  O         6.6308737255        4.1011700728        4.9589692424
  O         1.4752096253        2.3131621670        3.3102647386
  O        -1.3862894122        3.1902385406        2.3902816209
  O         4.0077327475        0.8540910527        1.2290614272
  O         4.4868424002       -0.9720968637        9.3127478364
  O         8.3039720650       -1.7016254133        9.4536874915
  O         6.1229668801        1.0162411707        9.4031013088
 Ca         7.6950275306        2.6023700137        6.5830449542
 Ca         4.4463605364       -0.6084727452        6.9419655470
 Ca         8.7708938706       -0.8257160605        6.4347826899
 Ca         3.4827529393        2.9833921020        6.6155166673
 Si         1.0421280636       -1.8024231723        8.3221505410
 Si         0.2842699816        3.4160554101        6.4034544691
 Si         1.4087711120        0.5144572075        6.3540981782
  O        -2.8656074962        4.6527999798        7.6841159823
  O         6.5782366540       -1.5626259846        6.6260959055
  O         1.4860925774        4.3197221313        5.7855268238
  O        -0.9236551527        3.1468106700        5.3676105653
  O        -0.2594302880        4.0041530390        7.8367427792
  O         1.5753915087       -0.3381005111        7.7594780605
  O         1.0322636813        2.0310318177        6.9201378269
  O         1.0179747960       -1.7561163426        9.9325677026
  O         2.9198121980        0.6921672977        5.7847222318
  O         0.2739993904       -0.0822346293        5.3689906671
  O         5.4951828261        1.6322046995        6.9124887102
  O        -1.7265721271        1.0263530480        7.9049431475
  O         3.4907300039        3.7979893613        8.8115452407
  O         2.5502444376        5.2133154923        1.0563537496
  O        -1.3425368224        5.5673402718        0.7051444967
  O         0.9871472733        3.0403755218        0.7091634155
 Ca         9.2764123696        3.3151067857        0.0242334384
 Ca        -3.2151027568        8.2507830457        3.6807276714
 Ca         0.0531084495       11.4500688255        3.2939586516
 Ca        -4.3461410391       11.7268176286        3.9477185649
 Ca         0.9809027304        7.8125169324        3.5169020547
 Si         3.4850252863       12.6815093418        1.9724885737
 Si         4.2485316396        7.5217261674        3.7995787448
 Si         3.0619884767       10.3666686457        3.9321603265
  O         7.4114498112        6.1661631722        2.6025283241
  O        -2.1207090776       12.4091425184        3.5367311902
  O         3.0254725998        6.5811371422        4.3193429275
  O         5.3956284585        7.7189037740        4.9357283064
  O         4.9486221404        7.0574286270        2.3866306204
  O         2.7769439463       11.3384566360        2.6261296453
  O         3.5728230319        8.9363803390        3.3052649960
  O         3.5250466843       12.5181569726        0.3678893005
  O         1.5543703521       10.0478533201        4.4490252070
  O         4.1591257910       10.9694518898        4.9597079792
  O        -0.9959382363        9.1824197993        3.3092436425
  O        -3.8571912605       10.0605633435        2.3903913347
  O         1.5392692718        7.7273267099        1.2207887567
  O         1.9971731004        5.8857837623        9.2583595018
  O         5.8312398087        5.1664659684        9.4538138869
  O         3.6360118200        7.8627798439        9.4115924238
 Ca         5.2255663709        9.4724944376        6.5839139959
 Ca         1.9896232645        6.2670045970        6.9055200466
 Ca         6.3042112044        6.0437620880        6.4365959847
 Ca         1.0117896792        9.8548051372        6.6163876106
 Si        -1.4283467196        5.0660790601        8.3218416399
 Si        -2.1863229213       10.2856976019        6.4034441559
 Si        -1.0631826335        7.3836833623        6.3542801216
  O        -5.3367619417       11.5234316459        7.6832283125
  O         4.1187463136        5.2948296778        6.6233968703
  O        -0.9846697894       11.1925230213        5.7891341132
  O        -3.3943099454       10.0169016776        5.3676598134
  O        -2.7295779623       10.8754225470        7.8372422459
  O        -0.9009773404        6.5313145144        7.7588031677
  O        -1.4384212668        8.9011960869        6.9199841389
  O        -1.4521197366        5.1130287759        9.9328800545
  O         0.4456749461        7.5654573909        5.7808572552
  O        -2.1979332656        6.7876841112        5.3685358368
  O         3.0296469599        8.5050901079        6.9150220604
  O        -4.1993419972        7.8963138798        7.9062686261
  O         1.0201039728       10.6712983998        8.8130135511
  O         0.0787782071       12.0825257615        1.0567928670
  O        -3.8138625029       12.4349893802        0.7018194348
  O        -1.4832099110        9.9096197685        0.7086727300
 Ca         6.8019873556       10.1797409556        0.0253516211
  H         3.1734166991        0.8505446482        0.5920433956
  H         4.6653398363        1.3487917589        0.6580379480
  H         5.1668941837       -0.2393673832        9.5238834918
  H         5.0038372606       -1.8456464399        9.2906328414
  H         8.1028779062       -2.5718755712        9.9782360587
  H         9.0941313098       -1.9663218564        8.8737314657
  H         5.6710581062        1.8305821510        9.9061105263
  H         6.0040829853        1.2262894148        8.4203872093
  H         3.8944739064        3.3007320428        9.6417074462
  H         4.2425932428        4.4466059730        8.6897113088
  H         1.9475474066        4.5318099583        0.6451594751
  H         2.1145780836        6.1165537602        0.9697950697
  H        -2.0563527613        5.8366063904        1.3565114584
  H        -1.0136048700        6.4511936648        0.3026177498
  H         1.0558438700        2.8026448930        1.6814853161
  H         1.4090469898        2.1954643022        0.2651255537
  H         0.7011161420        7.7203820319        0.5853960056
  H         2.1930411278        8.2150512745        0.6421285421
  H         2.6721427202        6.6135807232        9.4940796885
  H         2.5099387193        5.0078355928        9.2475817642
  H         5.6281576808        4.2975617422        9.9805607925
  H         6.6220457977        4.9005355443        8.8756688319
  H         3.1911706927        8.6792816050        9.9169897221
  H         3.5332967566        8.0794244757        8.4305416491
  H         1.4309807380       10.1715510415        9.6395315799
  H         1.7712248266       11.3189677695        8.6844526769
  H        -0.5237272132       11.4013167360        0.6452635656
  H        -0.3582334748       12.9853636746        0.9735948331
  H        -4.5275007272       12.7044101318        1.3523447347
  H        -3.4854938807       13.3189492845        0.2985061041
  H        -1.4144435241        9.6717824068        1.6808412827
  H        -1.0624727990        9.0641623337        0.2640370678
  H         0.5621439955        5.3504208262        4.4830720538
  H         1.3448912231        2.7058657564        4.2034386911
  H        -0.5347015771        3.6844247983        2.3957708632
  H         6.3961409339       -1.3331619908        5.6801383587
  H         5.6957066651        1.2390994818        6.0311066934
  H        -0.8026104858        1.3553509097        7.9347063567
  H        -1.9081765100       12.2224336587        4.4849435446
  H        -1.1255394283        9.5728018560        4.2033676868
  H        -3.0057080082       10.5550501678        2.3939359705
  H         3.9411603146        5.5193759653        5.6759354303
  H         3.2303024654        8.1255244875        6.0282033786
  H        -3.2752314921        8.2248196514        7.9394116870
     138
 i =        2, E =     -1761.2525182419
 Ca        -0.7424180951        1.3789777098        3.6826028495
 Ca         2.5272784070        4.5750067137        3.2908434592
 Ca        -1.8735950041        4.8590603242        3.9455241250
 Ca         3.4534085369        0.9382098295        3.5228704617
 Si         5.9552061557        5.8145744342        1.9760675328
 Si         6.7240543797        0.6537137435        3.7963281706
 Si         5.5353891806        3.4997038929        3.9351348639
  O         4.9404072422       13.0419415738        2.5991353754
  O         0.3591055786        5.5277655614        3.5319548407
  O         5.4986803942       -0.2871058586        4.3129123768
  O         7.8721784272        0.8422053390        4.9348644818
  O         7.4204722956        0.1942157044        2.3782831183
  O         5.2449206411        4.4742527687        2.6320029538
  O         6.0508715643        2.0724890491        3.3062856163
  O         6.0011389423        5.6380492010        0.3730282876
  O         4.0290618558        3.1719922049        4.4503644786
  O         6.6321861120        4.1064434256        4.9615963688
  O         1.4824482602        2.2994251746        3.3107147783
  O        -1.3819455369        3.1864388573        2.3899735660
  O         4.0072021166        0.8466745819        1.2320225762
  O         4.4877766182       -0.9770099752        9.3163583108
  O         8.3080762588       -1.6907546989        9.4528322205
  O         6.1159286657        1.0206702907        9.4058451248
 Ca         7.6913097850        2.5989559640        6.5786189593
 Ca         4.4431785357       -0.6116166608        6.9423242886
 Ca         8.7742136698       -0.8221593687        6.4358341061
 Ca         3.4826839756        2.9820978789        6.6151773309
 Si         1.0470218203       -1.7949521376        8.3222439027
 Si         0.2843607988        3.4143714436        6.4046919776
 Si         1.4142810401        0.5125220451        6.3497429784
  O        -2.8605883203        4.6500288754        7.6879180179
  O         6.5789005457       -1.5532500064        6.6251306700
  O         1.4817749366        4.3213477087        5.7841233587
  O        -0.9290332062        3.1419715702        5.3755194229
  O        -0.2660418012        3.9964953467        7.8382293355
  O         1.5836486617       -0.3332251565        7.7573860405
  O         1.0400660313        2.0303383570        6.9159475828
  O         1.0187704611       -1.7386768303        9.9324562496
  O         2.9270825866        0.6928026496        5.7851959985
  O         0.2802397812       -0.0877085991        5.3662926826
  O         5.4885101182        1.6341536283        6.9136455009
  O        -1.7192086239        1.0299178649        7.9059544196
  O         3.5038128112        3.8070870930        8.8185885080
  O         2.5502058375        5.2185148809        1.0582165084
  O        -1.3426507530        5.5562794284        0.7016319718
  O         0.9819415758        3.0352249585        0.7081782276
 Ca         9.2765521048        3.2999841925        0.0250345365
 Ca        -3.2140915470        8.2491561942        3.6834549954
 Ca         0.0555167720       11.4462057511        3.2931061282
 Ca        -4.3439919111       11.7289139722        3.9458051705
 Ca         0.9804743695        7.8095285101        3.5173385525
 Si         3.4843500836       12.6835212483        1.9742728588
 Si         4.2512149596        7.5226756544        3.7977951614
 Si         3.0636396207       10.3692646427        3.9350327892
  O         7.4115638813        6.1738614588        2.5997394354
  O        -2.1122406030       12.3973029746        3.5333776392
  O         3.0240718942        6.5826340640        4.3141582713
  O         5.3995167868        7.7115866078        4.9358849500
  O         4.9483327614        7.0634584594        2.3802772289
  O         2.7741611784       11.3437040252        2.6317650414
  O         3.5790494056        8.9415188151        3.3067443002
  O         3.5329490018       12.5018594829        0.3713056258
  O         1.5578488657       10.0410200450        4.4512640796
  O         4.1603485642       10.9748944707        4.9623403215
  O        -0.9889114970        9.1683375291        3.3098256114
  O        -3.8531002396       10.0569164171        2.3899504064
  O         1.5404592728        7.7171843105        1.2197326972
  O         2.0044001633        5.8903096511        9.2600891303
  O         5.8358902227        5.1784358218        9.4530867584
  O         3.6383354711        7.8701098629        9.4120732083
 Ca         5.2229941066        9.4700559313        6.5795546004
 Ca         1.9880783782        6.2643792136        6.9059569286
 Ca         6.3078549367        6.0475596165        6.4372655875
 Ca         1.0110622201        9.8555422036        6.6162575396
 Si        -1.4238978037        5.0733708483        8.3214471258
 Si        -2.1862803043       10.2844195127        6.4048799499
 Si        -1.0579331193        7.3826836819        6.3495554159
  O        -5.3312869388       11.5218185881        7.6868610583
  O         4.1211778990        5.2941896227        6.6209202707
  O        -0.9894535208       11.1931316207        5.7857995807
  O        -3.3993672119       10.0115961682        5.3757230970
  O        -2.7368068368       10.8669606239        7.8389897218
  O        -0.8938215737        6.5359311033        7.7557443416
  O        -1.4311129160        8.9008649742        6.9164331721
  O        -1.4515595632        5.1304811079        9.9322195907
  O         0.4537592088        7.5641255266        5.7825562133
  O        -2.1912339513        6.7821643407        5.3652136823
  O         3.0280043444        8.5073956349        6.9152588167
  O        -4.1924733247        7.8996891942        7.9072350295
  O         1.0345949941       10.6802589981        8.8196594865
  O         0.0790964195       12.0878703380        1.0586178473
  O        -3.8150024455       12.4235394227        0.6983718980
  O        -1.4907149253        9.9039682247        0.7075001668
 Ca         6.8019165456       10.1648091212        0.0264541119
  H         3.1734087705        0.8491518775        0.5944067134
  H         4.6613127838        1.3419119424        0.6571895195
  H         5.1635678661       -0.2389473683        9.5228385725
  H         5.0028797774       -1.8507314185        9.2896327115
  H         8.1002742230       -2.5601801029        9.9812821420
  H         9.0980119461       -1.9553740249        8.8754667896
  H         5.6712831386        1.8339183684        9.9081765844
  H         5.9993162705        1.2276188623        8.4213316384
  H         3.8944245918        3.2998188774        9.6497234116
  H         4.2474583099        4.4606347509        8.6802742808
  H         1.9496762448        4.5366819689        0.6440602001
  H         2.1117519450        6.1181532596        0.9722401918
  H        -2.0549794022        5.8336166806        1.3507100582
  H        -1.0155029682        6.4463932147        0.3053121172
  H         1.0605087868        2.7992610057        1.6806315983
  H         1.4096599850        2.1959157957        0.2643697287
  H         0.7005292923        7.7197860373        0.5876108516
  H         2.1899026865        8.2100682153        0.6407132285
  H         2.6774402437        6.6189427070        9.4945788588
  H         2.5096937376        5.0083718400        9.2475487355
  H         5.6264025026        4.3099435410        9.9831329157
  H         6.6258166462        4.9113209780        8.8769874418
  H         3.1911020146        8.6825035824        9.9125231279
  H         3.5264554794        8.0847597617        8.4309460183
  H         1.4309258004       10.1706960986        9.6480363746
  H         1.7774597314       11.3328526220        8.6759544732
  H        -0.5213667559       11.4061096393        0.6442310180
  H        -0.3610842456       12.9872070957        0.9757452757
  H        -4.5263716567       12.7016719727        1.3477215766
  H        -3.4868208119       13.3139969954        0.3027579931
  H        -1.4099420968        9.6688197251        1.6798970713
  H        -1.0613925689        9.0653201148        0.2637568903
  H         0.5637537802        5.3470988955        4.4833294003
  H         1.3448131409        2.7039477820        4.1981665115
  H        -0.5347355456        3.6884606160        2.3962459623
  H         6.3977641821       -1.3300368147        5.6776779484
  H         5.6946149558        1.2392474720        6.0341464858
  H        -0.7953075401        1.3579579891        7.9330651551
  H        -1.9065612322       12.2191315914        4.4851374255
  H        -1.1252186360        9.5711284119        4.1981546760
  H        -3.0058579520       10.5589385137        2.3949091905
  H         3.9442865877        5.5211512288        5.6740619464
  H         3.2294348970        8.1254801900        6.0295892562
  H        -3.2684587870        8.2274468076        7.9377710087
     138
 i =        3, E =     -1761.2534406033
 Ca        -0.7391747412        1.3784146026        3.6849610813
 Ca         2.5319689086        4.5714863085        3.2884004494
 Ca        -1.8723113319        4.8585837353        3.9428070875
 Ca         3.4562069197        0.9338522033        3.5232180989
 Si         5.9592998483        5.8137216694        1.9779535237
 Si         6.7265153960        0.6535424147        3.7919077533
 Si         5.5369383112        3.5013210308        3.9393735292
  O         4.9425422885       13.0472230400        2.6015057820
  O         0.3555363894        5.5304881063        3.5330511589
  O         5.4998124985       -0.2873168022        4.3084656687
  O         7.8726836657        0.8395814967        4.9343905301
  O         7.4216190260        0.1941222297        2.3714949722
  O         5.2444675852        4.4777104520        2.6383049398
  O         6.0568809764        2.0771979850        3.3082555930
  O         6.0073721568        5.6304912430        0.3757065104
  O         4.0318895425        3.1685381023        4.4536183481
  O         6.6319477332        4.1152443437        4.9640757099
  O         1.4882491798        2.2878105540        3.3116138534
  O        -1.3767455970        3.1800967586        2.3923102992
  O         4.0070867014        0.8383477154        1.2332985515
  O         4.4857282998       -0.9818926508        9.3170581387
  O         8.3057600828       -1.6866406759        9.4507316575
  O         6.1116599012        1.0206362721        9.4052721085
 Ca         7.6896702382        2.5985956406        6.5812350921
 Ca         4.4398530997       -0.6109706538        6.9447344006
 Ca         8.7786935814       -0.8188650164        6.4373702536
 Ca         3.4836758853        2.9801159727        6.6164184070
 Si         1.0515336119       -1.7904636523        8.3237545153
 Si         0.2800546300        3.4131727012        6.4041300980
 Si         1.4173409675        0.5120957653        6.3490545804
  O        -2.8562644355        4.6529449074        7.6890424472
  O         6.5760810573       -1.5403950486        6.6256321251
  O         1.4774449080        4.3220713282        5.7873508389
  O        -0.9353746033        3.1390053137        5.3764210394
  O        -0.2630555493        3.9976869100        7.8398858619
  O         1.5926719687       -0.3314897552        7.7562991940
  O         1.0470403877        2.0329667255        6.9123624719
  O         1.0188099026       -1.7259302084        9.9335786277
  O         2.9287095350        0.6908191657        5.7813798315
  O         0.2829065652       -0.0881876784        5.3664507284
  O         5.4787972347        1.6341118818        6.9146041151
  O        -1.7115504875        1.0262656159        7.9046442108
  O         3.5079514751        3.8139822364        8.8191500235
  O         2.5507466284        5.2194827067        1.0581074016
  O        -1.3415621493        5.5497956411        0.6986407789
  O         0.9820685638        3.0382031354        0.7108904033
 Ca         9.2745203169        3.2947396044        0.0255533490
 Ca        -3.2112563482        8.2483235750        3.6852737463
 Ca         0.0599276700       11.4436143265        3.2905953021
 Ca        -4.3430339193       11.7287944385        3.9429510977
 Ca         0.9834961166        7.8042632985        3.5167828285
 Si         3.4883428448       12.6818363949        1.9755723795
 Si         4.2533959570        7.5228751344        3.7940649911
 Si         3.0656020508       10.3711434224        3.9393162986
  O         7.4142474680        6.1784917385        2.6022432815
  O        -2.1155850592       12.3994736295        3.5341093832
  O         3.0247678010        6.5826822082        4.3104813216
  O         5.4006244997        7.7085307279        4.9353920231
  O         4.9489057483        7.0635536419        2.3742751572
  O         2.7727710034       11.3469615620        2.6382178763
  O         3.5848196125        8.9463713556        3.3084292216
  O         3.5378533119       12.4918408951        0.3734566219
  O         1.5610096186       10.0384084146        4.4550912478
  O         4.1596966645       10.9841183473        4.9657084890
  O        -0.9825796670        9.1570894344        3.3109365954
  O        -3.8482696572       10.0507825681        2.3931516207
  O         1.5414093021        7.7101903818        1.2170332698
  O         2.0087126751        5.8934527390        9.2600444544
  O         5.8344934865        5.1832665226        9.4510199571
  O         3.6399118152        7.8733265516        9.4085060779
 Ca         5.2226651442        9.4700112634        6.5827493476
 Ca         1.9878498152        6.2637443363        6.9076442984
 Ca         6.3121488249        6.0500812397        6.4390156644
 Ca         1.0124576028        9.8554817440        6.6172474669
 Si        -1.4198292187        5.0778822374        8.3224890291
 Si        -2.1905512763       10.2825233096        6.4040622196
 Si        -1.0539200123        7.3817063074        6.3487613386
  O        -5.3265666030       11.5254212688        7.6881763191
  O         4.1220091180        5.2926388498        6.6187710659
  O        -0.9936537475       11.1932787069        5.7896424051
  O        -3.4055267218       10.0084725235        5.3762033557
  O        -2.7339732797       10.8679847329        7.8398898676
  O        -0.8844592762        6.5375579739        7.7548671398
  O        -1.4234909733        8.9029238048        6.9123057602
  O        -1.4523936208        5.1434852412        9.9327734655
  O         0.4568778384        7.5630124961        5.7797391156
  O        -2.1883987115        6.7825079286        5.3652119044
  O         3.0241859106        8.5091582515        6.9147182960
  O        -4.1843802580        7.8959263070        7.9051564813
  O         1.0396042196       10.6849827217        8.8187449084
  O         0.0796611939       12.0889343443        1.0584937454
  O        -3.8145078123       12.4162306960        0.6957512142
  O        -1.4892812738        9.9076016778        0.7104293063
 Ca         6.8008423489       10.1600416353        0.0270042681
  H         3.1705268482        0.8508295468        0.5996230678
  H         4.6595735634        1.3353725414        0.6574977771
  H         5.1589657707       -0.2402764320        9.5232677574
  H         5.0050510913       -1.8529212807        9.2895901155
  H         8.1044100387       -2.5518794039        9.9844557660
  H         9.1025063668       -1.9460520022        8.8800389331
  H         5.6714520072        1.8348169115        9.9117035433
  H         5.9930187293        1.2304719226        8.4220144790
  H         3.9018866214        3.3080657708        9.6486687721
  H         4.2504680828        4.4670336540        8.6786113859
  H         1.9506659352        4.5400726749        0.6415885800
  H         2.1102050785        6.1184384363        0.9767610600
  H        -2.0559315723        5.8268935513        1.3446553860
  H        -1.0160284072        6.4387322036        0.3043445713
  H         1.0637387475        2.7946760255        1.6809037723
  H         1.4103496557        2.1984430438        0.2627913238
  H         0.6980227387        7.7218644892        0.5902282149
  H         2.1891486292        8.2063526921        0.6390854862
  H         2.6827682699        6.6214104433        9.4953661241
  H         2.5148655409        5.0129555441        9.2487772808
  H         5.6304691825        4.3191527267        9.9862772385
  H         6.6304168714        4.9210386769        8.8806224942
  H         3.1939557057        8.6842596197        9.9140750018
  H         3.5218625353        8.0896009872        8.4284181473
  H         1.4380704398       10.1784623312        9.6469602787
  H         1.7812276570       11.3383412927        8.6757205356
  H        -0.5204427749       11.4097432120        0.6416985830
  H        -0.3628787892       12.9873107940        0.9805275683
  H        -4.5276017980       12.6947562024        1.3425047116
  H        -3.4872250038       13.3056938847        0.3031145308
  H        -1.4074280710        9.6644886611        1.6804061520
  H        -1.0609837089        9.0681666880        0.2619960873
  H         0.5672406440        5.3409842582        4.4809734097
  H         1.3453945181        2.7009266519        4.1940925605
  H        -0.5346607164        3.6916202448        2.3950360191
  H         6.4000287409       -1.3241444016        5.6755305462
  H         5.6907503622        1.2386330132        6.0369047247
  H        -0.7900463815        1.3613433303        7.9328211490
  H        -1.9031578480       12.2131204464        4.4827209545
  H        -1.1244031111        9.5684126715        4.1943092992
  H        -3.0060057389       10.5619658645        2.3939486765
  H         3.9486020463        5.5235544070        5.6722485973
  H         3.2265543339        8.1249079993        6.0304870472
  H        -3.2630409211        8.2309069922        7.9376288324
     138
 i =        4, E =     -1761.2541526652
 Ca        -0.7333772582        1.3760961637        3.6897677073
 Ca         2.5388799670        4.5672764052        3.2857093151
 Ca        -1.8708087495        4.8568468880        3.9427476617
 Ca         3.4620638903        0.9283324587        3.5269257619
 Si         5.9627910045        5.8119629868        1.9797244840
 Si         6.7301990955        0.6532359545        3.7860148193
 Si         5.5399066640        3.5015906304        3.9456622708
  O         4.9462625268       13.0466153332        2.6018459716
  O         0.3544066450        5.5303526754        3.5327675033
  O         5.5025881355       -0.2888500011        4.3005287046
  O         7.8729572250        0.8423567827        4.9329623822
  O         7.4232495012        0.1958432656        2.3616874355
  O         5.2447227216        4.4806253461        2.6477332397
  O         6.0613470673        2.0805407274        3.3099156957
  O         6.0148595109        5.6263071408        0.3782728682
  O         4.0345298516        3.1688627012        4.4553365765
  O         6.6296185395        4.1275616539        4.9691907869
  O         1.4872379027        2.2911843273        3.3082504247
  O        -1.3681213592        3.1679987638        2.3934531449
  O         4.0051543070        0.8329887693        1.2375247355
  O         4.4822571098       -0.9864221260        9.3180720120
  O         8.3026986168       -1.6816406870        9.4502179426
  O         6.1092848609        1.0179418359        9.4028875096
 Ca         7.6857190223        2.5987173807        6.5869197150
 Ca         4.4342063530       -0.6111874364        6.9491215247
 Ca         8.7830058962       -0.8153110840        6.4368433348
 Ca         3.4818384518        2.9789972107        6.6171894976
 Si         1.0581315733       -1.7851149458        8.3280747996
 Si         0.2783420747        3.4150610375        6.4032643196
 Si         1.4202652586        0.5130195487        6.3478460920
  O        -2.8485621452        4.6578314277        7.6912434985
  O         6.5714347418       -1.5214736091        6.6284611305
  O         1.4730679142        4.3253808971        5.7828763300
  O        -0.9423185104        3.1383511345        5.3802392605
  O        -0.2621956164        3.9968716152        7.8418778728
  O         1.5995710121       -0.3281312610        7.7554515705
  O         1.0454738967        2.0338421436        6.9124579873
  O         1.0174761122       -1.7122256212        9.9375382072
  O         2.9298436140        0.6917339699        5.7783758618
  O         0.2810994904       -0.0858176071        5.3703626461
  O         5.4657870252        1.6336938019        6.9158212806
  O        -1.7069249785        1.0276370104        7.9061996088
  O         3.5114630657        3.8168171171        8.8183982150
  O         2.5513043264        5.2183022040        1.0577641976