 DBCSR| CPU Multiplication driver                                           XSMM (U)
 DBCSR| Multrec recursion limit                                              512 (U)
 DBCSR| Multiplication stack size                                           1000 (D)
 DBCSR| Maximum elements for images                                    UNLIMITED (U)
 DBCSR| Multiplicative factor virtual images                                   1 (U)
 DBCSR| Use multiplication densification                                       T (D)
 DBCSR| Multiplication size stacks                                             3 (U)
 DBCSR| Use memory pool for CPU allocation                                     F (U)
 DBCSR| Number of 3D layers                                               SINGLE (U)
 DBCSR| Use MPI memory allocation                                              F (U)
 DBCSR| Use RMA algorithm                                                      F (U)
 DBCSR| Use Communication thread                                               T (U)
 DBCSR| Communication thread load                                             83 (D)
 DBCSR| MPI: My process id                                                     0
 DBCSR| MPI: Number of processes                                              52
 DBCSR| OMP: Current number of threads                                         2
 DBCSR| OMP: Max number of threads                                             2
 DBCSR| Split modifier for TAS multiplication algorithm                  1.0E+00 (U)


  **** **** ******  **  PROGRAM STARTED AT               2025-01-16 07:29:44.770
 ***** ** ***  *** **   PROGRAM STARTED ON                           ubuntu-GPU2
 **    ****   ******    PROGRAM STARTED BY                                   zkm
 ***** **    ** ** **   PROGRAM PROCESS ID                               3481124
  **** **  *******  **  PROGRAM STARTED IN /home/zkm/CP2K/Generate_dataset/Jenni
                                           te/Elastic/elastic_cp2k/example/epsil
                                           onyz/pos

 CP2K| version string:                                       CP2K version 2024.3
 CP2K| source code revision number:                                  git:6712648
 CP2K| cp2kflags: omp libint fftw3 libxc libgrpp pexsi elpa parallel scalapack m
 CP2K|            pi_f08 cosma quip xsmm plumed2 spglib mkl sirius libvori libbq
 CP2K|            qb libvdwxc hdf5
 CP2K| is freely available from                            https://www.cp2k.org/
 CP2K| Program compiled at            2024年 10月 05日 星期六 13:00:57 CST
 CP2K| Program compiled on                                           ubuntu-GPU2
 CP2K| Program compiled for                                                local
 CP2K| Data directory path                       /home/zkm/CP2K/cp2k-2024.3/data
 CP2K| Input file name                                                geoopt.inp

 GLOBAL| Force Environment number                                              1
 GLOBAL| Basis set file name                                        BASIS_MOLOPT
 GLOBAL| Potential file name                                           POTENTIAL
 GLOBAL| MM Potential file name                                     MM_POTENTIAL
 GLOBAL| Coordinate file name                                          coord.xyz
 GLOBAL| Method name                                                        CP2K
 GLOBAL| Project name                                                     geoopt
 GLOBAL| Run type                                                        GEO_OPT
 GLOBAL| FFT library                                                       FFTW3
 GLOBAL| Diagonalization library                                            ELPA
 GLOBAL| DGEMM library                                                      BLAS
 GLOBAL| Minimum number of eigenvectors for ELPA usage                        16
 GLOBAL| Orthonormality check for eigenvectors                          DISABLED
 GLOBAL| Matrix multiplication library                                     COSMA
 GLOBAL| All-to-all communication in single precision                          F
 GLOBAL| FFTs using library dependent lengths                                  F
 GLOBAL| Grid backend                                                       AUTO
 GLOBAL| Global print level                                                  LOW
 GLOBAL| MPI I/O enabled                                                       T
 GLOBAL| Total number of message passing processes                            52
 GLOBAL| Number of threads for this process                                    2
 GLOBAL| This output is from process                                           0
 GLOBAL| Stack size for threads created by OpenMP (OMP_STACKSIZE)        default
 GLOBAL| CPU model name            Intel(R) Xeon(R) Platinum 8179M CPU @ 2.40GHz
 GLOBAL| CPUID                                                              1003

 MEMORY| system memory details [Kb]
 MEMORY|                        rank 0           min           max       average
 MEMORY| MemTotal            527974664     527974664     527974664     527974664
 MEMORY| MemFree             104864148     104864148     104864148     104864148
 MEMORY| Buffers               6978732       6978732       6978732       6978732
 MEMORY| Cached              241451380     241451380     241451380     241451380
 MEMORY| Slab                 39926020      39926020      39926020      39926020
 MEMORY| SReclaimable         37100668      37100668      37100668      37100668
 MEMORY| MemLikelyFree       390394928     390394928     390394928     390394928


 GENERATE|  Preliminary Number of Bonds generated:                             0
 GENERATE|  Achieved consistency in connectivity generation.

 *******************************************************************************
 *******************************************************************************
 **                                                                           **
 **     #####                         ##              ##                      **
 **    ##   ##            ##          ##              ##                      **
 **   ##     ##                       ##            ######                    **
 **   ##     ##  ##   ##  ##   #####  ##  ##   ####   ##    #####    #####    **
 **   ##     ##  ##   ##  ##  ##      ## ##   ##      ##   ##   ##  ##   ##   **
 **   ##  ## ##  ##   ##  ##  ##      ####     ###    ##   ######   ######    **
 **    ##  ###   ##   ##  ##  ##      ## ##      ##   ##   ##       ##        **
 **     #######   #####   ##   #####  ##  ##  ####    ##    #####   ##        **
 **           ##                                                    ##        **
 **                                                                           **
 **                                                ... make the atoms dance   **
 **                                                                           **
 **            Copyright (C) by CP2K developers group (2000-2024)             **
 **                      J. Chem. Phys. 152, 194103 (2020)                    **
 **                                                                           **
 *******************************************************************************


 TOTAL NUMBERS AND MAXIMUM NUMBERS

  Total number of            - Atomic kinds:                                   4
                             - Atoms:                                        138
                             - Shell sets:                                   138
                             - Shells:                                       620
                             - Primitive Cartesian functions:                696
                             - Cartesian basis functions:                   1554
                             - Spherical basis functions:                   1460

  Maximum angular momentum of- Orbital basis functions:                        2
                             - Local part of the GTH pseudopotential:          2
                             - Non-local part of the GTH pseudopotential:      3


 SCF PARAMETERS         Density guess:                                    ATOMIC
                        --------------------------------------------------------
                        max_scf:                                              25
                        max_scf_history:                                       0
                        max_diis:                                              4
                        --------------------------------------------------------
                        eps_scf:                                        1.00E-07
                        eps_scf_history:                                0.00E+00
                        eps_diis:                                       1.00E-01
                        eps_eigval:                                     1.00E-05
                        --------------------------------------------------------
                        level_shift [a.u.]:                             0.000000
                        --------------------------------------------------------
                        Outer loop SCF in use 
                        No variables optimised in outer loop
                        eps_scf                                         1.00E-07
                        max_scf                                               20
                        No outer loop optimization
                        step_size                                       5.00E-01

 BFGS| Use rational function optimization for step estimation:                NO
 BFGS| Use model Hessian for initial guess:                                  YES
 BFGS| Restart Hessian:                                                       NO
 BFGS| Trust radius:                                                       0.378

 *******************************************************************************
 ***                     STARTING GEOMETRY OPTIMIZATION                      ***
 ***                                   BFGS                                  ***
 *******************************************************************************

 Number of electrons:                                                        656
 Number of occupied orbitals:                                                328
 Number of molecular orbitals:                                               328

 Number of orbital functions:                                               1460
 Number of independent orbital functions:                                   1460

 Extrapolation method: initial_guess


 SCF WAVEFUNCTION OPTIMIZATION

  ----------------------------------- OT ---------------------------------------
  Minimizer      : DIIS                : direct inversion
                                         in the iterative subspace
                                         using   7 DIIS vectors
                                         safer DIIS on
  Preconditioner : FULL_KINETIC        : inversion of T + eS
  Precond_solver : DEFAULT
  stepsize       :    0.15000000                  energy_gap     :    0.20000000
  eps_taylor     :   0.10000E-15                  max_taylor     :             4
  ----------------------------------- OT ---------------------------------------

  Step     Update method      Time    Convergence         Total energy    Change
  ------------------------------------------------------------------------------
     1 OT DIIS     0.15E+00    1.0     0.01900118     -1710.2683326608 -1.71E+03
     2 OT DIIS     0.15E+00    1.7     0.01127561     -1728.7631752672 -1.85E+01
     3 OT DIIS     0.15E+00    1.7     0.00837862     -1737.8572716788 -9.09E+00
     4 OT DIIS     0.15E+00    2.1     0.00559116     -1746.4862405413 -8.63E+00
     5 OT DIIS     0.15E+00    1.7     0.00415456     -1750.9599230133 -4.47E+00
     6 OT DIIS     0.15E+00    1.7     0.00321156     -1753.8415282689 -2.88E+00
     7 OT DIIS     0.15E+00    1.7     0.00246730     -1755.9915514684 -2.15E+00
     8 OT DIIS     0.15E+00    1.7     0.00194369     -1757.4212104787 -1.43E+00
     9 OT DIIS     0.15E+00    1.7     0.00155812     -1758.3716669373 -9.50E-01
    10 OT DIIS     0.15E+00    1.7     0.00132349     -1758.9902262311 -6.19E-01
    11 OT DIIS     0.15E+00    1.7     0.00112251     -1759.4195712211 -4.29E-01
    12 OT DIIS     0.15E+00    1.7     0.00098707     -1759.7735493841 -3.54E-01
    13 OT DIIS     0.15E+00    1.7     0.00082602     -1760.0390294840 -2.65E-01
    14 OT DIIS     0.15E+00    1.7     0.00069758     -1760.2467902814 -2.08E-01
    15 OT DIIS     0.15E+00    1.7     0.00055827     -1760.4303142402 -1.84E-01
    16 OT DIIS     0.15E+00    1.7     0.00046622     -1760.5282243392 -9.79E-02
    17 OT DIIS     0.15E+00    1.7     0.00038302     -1760.6125027824 -8.43E-02
    18 OT DIIS     0.15E+00    1.7     0.00033605     -1760.6592809322 -4.68E-02
    19 OT DIIS     0.15E+00    1.7     0.00031401     -1760.6917969431 -3.25E-02
    20 OT DIIS     0.15E+00    1.7     0.00030068     -1760.7122221568 -2.04E-02
    21 OT SD       0.15E+00    1.7     0.00030336     -1760.7246427034 -1.24E-02
    22 OT SD       0.15E+00    1.7     0.00030600     -1760.7312779543 -6.64E-03
    23 OT SD       0.15E+00    1.7     0.00030956     -1760.7380408146 -6.76E-03
    24 OT SD       0.15E+00    1.7     0.00031375     -1760.7449690465 -6.93E-03
    25 OT SD       0.15E+00    1.7     0.00031842     -1760.7520912087 -7.12E-03

  Leaving inner SCF loop after reaching    25 steps.


  Electronic density on regular grids:       -655.9999999993        0.0000000007
  Core density on regular grids:              655.9999999997       -0.0000000003
  Total charge density on r-space grids:        0.0000000003
  Total charge density g-space grids:           0.0000000003

  Overlap energy of the core charge distribution:               0.00000060301891
  Self energy of the core charge distribution:              -4144.80997841715816
  Core Hamiltonian energy:                                   1117.13329488597083
  Hartree energy:                                            1614.06398870058706
  Exchange-correlation energy:                               -346.64421640903106
  Dispersion energy:                                           -0.49518057205917

  Total energy:                                             -1760.75209120867180

  outer SCF iter =    1 RMS gradient =   0.32E-03 energy =      -1760.7520912087

  ----------------------------------- OT ---------------------------------------
  Minimizer      : DIIS                : direct inversion
                                         in the iterative subspace
                                         using   7 DIIS vectors
                                         safer DIIS on
  Preconditioner : FULL_KINETIC        : inversion of T + eS
  Precond_solver : DEFAULT
  stepsize       :    0.15000000                  energy_gap     :    0.20000000
  eps_taylor     :   0.10000E-15                  max_taylor     :             4
  ----------------------------------- OT ---------------------------------------

  Step     Update method      Time    Convergence         Total energy    Change
  ------------------------------------------------------------------------------
     1 OT DIIS     0.15E+00    3.5     0.00057022     -1760.7594305435 -7.34E-03
     2 OT DIIS     0.15E+00    1.6     0.00050874     -1760.7811933827 -2.18E-02
     3 OT DIIS     0.15E+00    1.7     0.00047085     -1760.8155573683 -3.44E-02
     4 OT DIIS     0.15E+00    1.7     0.00046462     -1760.8425145207 -2.70E-02
     5 OT SD       0.15E+00    2.3     0.00046627     -1760.8593538154 -1.68E-02
     6 OT SD       0.15E+00    1.7     0.00046909     -1760.8750135614 -1.57E-02
     7 OT DIIS     0.15E+00    1.7     0.00047196     -1760.8908662270 -1.59E-02
     8 OT SD       0.15E+00    1.7     0.00050452     -1760.8996198372 -8.75E-03
     9 OT SD       0.15E+00    1.7     0.00049962     -1760.9177799986 -1.82E-02
    10 OT SD       0.15E+00    1.7     0.00049606     -1760.9356379226 -1.79E-02
    11 OT SD       0.15E+00    1.7     0.00049230     -1760.9532448266 -1.76E-02
    12 OT SD       0.15E+00    1.7     0.00048780     -1760.9705746285 -1.73E-02
    13 OT SD       0.15E+00    1.7     0.00048229     -1760.9875717081 -1.70E-02
    14 OT DIIS     0.15E+00    1.7     0.00047566     -1761.0041672105 -1.66E-02
    15 OT DIIS     0.15E+00    1.7     0.00023670     -1761.2127439329 -2.09E-01
    16 OT DIIS     0.15E+00    1.6     0.00018169     -1761.2374972670 -2.48E-02
    17 OT DIIS     0.15E+00    1.7     0.00012579     -1761.2380742975 -5.77E-04
    18 OT DIIS     0.15E+00    1.6     0.00008735     -1761.2415554337 -3.48E-03
    19 OT DIIS     0.15E+00    1.7     0.00005499     -1761.2432613973 -1.71E-03
    20 OT DIIS     0.15E+00    1.7     0.00004450     -1761.2437106885 -4.49E-04
    21 OT DIIS     0.15E+00    1.7     0.00003296     -1761.2440859269 -3.75E-04
    22 OT DIIS     0.15E+00    1.7     0.00002639     -1761.2443424545 -2.57E-04
    23 OT DIIS     0.15E+00    1.7     0.00002089     -1761.2445241469 -1.82E-04
    24 OT DIIS     0.15E+00    1.7     0.00001676     -1761.2446417379 -1.18E-04
    25 OT DIIS     0.15E+00    1.7     0.00001238     -1761.2447467346 -1.05E-04

  Leaving inner SCF loop after reaching    25 steps.


  Electronic density on regular grids:       -655.9999999993        0.0000000007
  Core density on regular grids:              655.9999999997       -0.0000000003
  Total charge density on r-space grids:        0.0000000003
  Total charge density g-space grids:           0.0000000003

  Overlap energy of the core charge distribution:               0.00000060301891
  Self energy of the core charge distribution:              -4144.80997841715816
  Core Hamiltonian energy:                                   1117.23848434660317
  Hartree energy:                                            1613.73080870444710
  Exchange-correlation energy:                               -346.90888139945622
  Dispersion energy:                                           -0.49518057205917

  Total energy:                                             -1761.24474673460440

  outer SCF iter =    2 RMS gradient =   0.12E-04 energy =      -1761.2447467346

  ----------------------------------- OT ---------------------------------------
  Minimizer      : DIIS                : direct inversion
                                         in the iterative subspace
                                         using   7 DIIS vectors
                                         safer DIIS on
  Preconditioner : FULL_KINETIC        : inversion of T + eS
  Precond_solver : DEFAULT
  stepsize       :    0.15000000                  energy_gap     :    0.20000000
  eps_taylor     :   0.10000E-15                  max_taylor     :             4
  ----------------------------------- OT ---------------------------------------

  Step     Update method      Time    Convergence         Total energy    Change
  ------------------------------------------------------------------------------
     1 OT DIIS     0.15E+00    3.4     0.00001662     -1761.2447896108 -4.29E-05
     2 OT DIIS     0.15E+00    1.6     0.00001353     -1761.2448074615 -1.79E-05
     3 OT DIIS     0.15E+00    1.7     0.00000850     -1761.2448382471 -3.08E-05
     4 OT DIIS     0.15E+00    1.6     0.00000649     -1761.2448490320 -1.08E-05
     5 OT DIIS     0.15E+00    1.6     0.00000372     -1761.2448599620 -1.09E-05
     6 OT DIIS     0.15E+00    1.7     0.00000299     -1761.2448619602 -2.00E-06
     7 OT DIIS     0.15E+00    1.6     0.00000177     -1761.2448643473 -2.39E-06
     8 OT DIIS     0.15E+00    2.1     0.00000126     -1761.2448650014 -6.54E-07
     9 OT DIIS     0.15E+00    1.6     0.00000088     -1761.2448653196 -3.18E-07
    10 OT DIIS     0.15E+00    1.6     0.00000054     -1761.2448654934 -1.74E-07
    11 OT DIIS     0.15E+00    1.6     0.00000036     -1761.2448655522 -5.88E-08
    12 OT DIIS     0.15E+00    1.7     0.00000026     -1761.2448655750 -2.28E-08
    13 OT DIIS     0.15E+00    1.6     0.00000020     -1761.2448655847 -9.71E-09
    14 OT DIIS     0.15E+00    1.6     0.00000015     -1761.2448655913 -6.59E-09
    15 OT DIIS     0.15E+00    1.6     0.00000011     -1761.2448655948 -3.57E-09
    16 OT DIIS     0.15E+00    1.6     0.00000008     -1761.2448655967 -1.90E-09

  *** SCF run converged in    16 steps ***


  Electronic density on regular grids:       -655.9999999993        0.0000000007
  Core density on regular grids:              655.9999999997       -0.0000000003
  Total charge density on r-space grids:        0.0000000003
  Total charge density g-space grids:           0.0000000003

  Overlap energy of the core charge distribution:               0.00000060301891
  Self energy of the core charge distribution:              -4144.80997841715816
  Core Hamiltonian energy:                                   1117.23663342865757
  Hartree energy:                                            1613.73226432910769
  Exchange-correlation energy:                               -346.90860496829265
  Dispersion energy:                                           -0.49518057205917

  Total energy:                                             -1761.24486559672596

  outer SCF iter =    3 RMS gradient =   0.79E-07 energy =      -1761.2448655967
  outer SCF loop converged in   3 iterations or   66 steps


 ENERGY| Total FORCE_EVAL ( QS ) energy [a.u.]:            -1761.244865597577927

 ATOMIC FORCES in [a.u.]

 # Atom   Kind   Element          X              Y              Z
      1      1      Ca         -0.00024662    -0.00032752    -0.00014146
      2      1      Ca          0.00020639     0.00037295     0.00057219
      3      1      Ca         -0.00014748     0.00030118    -0.00022300
      4      1      Ca          0.00015044    -0.00021534    -0.00026175
      5      2      Si          0.00056131     0.00028798     0.00030496
      6      2      Si          0.00014073    -0.00007818    -0.00045417
      7      2      Si          0.00018810    -0.00001646     0.00007559
      8      3      O          -0.00111530     0.00097859    -0.00021332
      9      3      O           0.00224504    -0.00307491    -0.00010157
     10      3      O          -0.00197089    -0.00178749     0.00016094
     11      3      O           0.00218388    -0.00141135    -0.00010002
     12      3      O          -0.00008363     0.00241524     0.00007561
     13      3      O          -0.00025402     0.00338509     0.00007918
     14      3      O          -0.00014425     0.00270651    -0.00048144
     15      3      O           0.00290456    -0.01447687     0.00233450
     16      3      O           0.00049316    -0.00175092     0.00000514
     17      3      O           0.00093095     0.00083039     0.00077316
     18      3      O           0.00152431    -0.00166619    -0.00096741
     19      3      O           0.00077181    -0.00009927    -0.00081616
     20      3      O          -0.00101813     0.00303001     0.00273516
     21      3      O          -0.00064990     0.00068157    -0.00074406
     22      3      O           0.00517621     0.01321068    -0.00529945
     23      3      O          -0.00618084     0.00674758     0.00704675
     24      1      Ca          0.00009202     0.00088615    -0.00055990
     25      1      Ca          0.00002968    -0.00059336    -0.00038614
     26      1      Ca         -0.00012066    -0.00073679     0.00112972
     27      1      Ca         -0.00004108     0.00066456     0.00057945
     28      2      Si         -0.00142794     0.00002816     0.00023157
     29      2      Si         -0.00012084     0.00014748     0.00020332
     30      2      Si         -0.00014432    -0.00012985    -0.00003614
     31      3      O           0.00013657     0.00037521    -0.00143456
     32      3      O           0.00080484     0.00173496    -0.00047332
     33      3      O          -0.00249376    -0.00055849    -0.00013341
     34      3      O          -0.00089932    -0.00063676     0.00021645
     35      3      O           0.00346399     0.00146881    -0.00019316
     36      3      O           0.00133648    -0.00083186    -0.00015114
     37      3      O           0.00134261    -0.00078435     0.00016147
     38      3      O           0.00049753     0.01522844    -0.00052019
     39      3      O           0.00277831    -0.00121316    -0.00009194
     40      3      O           0.00293539    -0.00079127     0.00031303
     41      3      O          -0.00113509    -0.00006884     0.00068973
     42      3      O           0.00187272     0.00233732    -0.00012243
     43      3      O          -0.00135452     0.00147739    -0.00415614
     44      3      O          -0.00020769     0.00058990    -0.00024465
     45      3      O          -0.00443333    -0.00917694     0.00402889
     46      3      O           0.00541050    -0.00802189    -0.00584606
     47      1      Ca          0.00104581    -0.00516212     0.00079973
     48      1      Ca         -0.00013894    -0.00047958    -0.00014933
     49      1      Ca          0.00005182     0.00029663     0.00058488
     50      1      Ca         -0.00003763     0.00018622    -0.00016847
     51      1      Ca          0.00007601    -0.00019445    -0.00007763
     52      2      Si          0.00045816     0.00050955     0.00024497
     53      2      Si          0.00025520    -0.00027848    -0.00041497
     54      2      Si          0.00016448     0.00010933     0.00020443
     55      3      O          -0.00126723     0.00112304    -0.00010226
     56      3      O           0.00216586    -0.00305939    -0.00006339
     57      3      O          -0.00230829    -0.00168722    -0.00002464
     58      3      O           0.00217603    -0.00123646    -0.00000804
     59      3      O           0.00018420     0.00253104    -0.00004569
     60      3      O          -0.00042300     0.00330878    -0.00002517
     61      3      O          -0.00020273     0.00257473    -0.00050801
     62      3      O           0.00286300    -0.01428415     0.00256961
     63      3      O           0.00038788    -0.00186494     0.00018470
     64      3      O           0.00111024     0.00089280     0.00080186
     65      3      O           0.00148893    -0.00172622    -0.00100721
     66      3      O           0.00073374     0.00004585    -0.00071663
     67      3      O          -0.00092231     0.00351693     0.00237245
     68      3      O           0.00172804     0.00464597     0.00041352
     69      3      O           0.00496819     0.01327398    -0.00550513
     70      3      O          -0.00717448     0.00904295     0.00523811
     71      1      Ca          0.00020701     0.00080596    -0.00061967
     72      1      Ca          0.00009343    -0.00058532    -0.00043551
     73      1      Ca         -0.00017851    -0.00067809     0.00117029
     74      1      Ca         -0.00003342     0.00058884     0.00038744
     75      2      Si         -0.00155651     0.00004732     0.00020363
     76      2      Si         -0.00013715     0.00025803     0.00022748
     77      2      Si         -0.00014194     0.00006378    -0.00018603
     78      3      O           0.00025170     0.00057816    -0.00124270
     79      3      O           0.00194342     0.00095686    -0.00047126
     80      3      O          -0.00275462    -0.00089977    -0.00006055
     81      3      O          -0.00075869    -0.00055155     0.00021010
     82      3      O           0.00337802     0.00154344    -0.00031642
     83      3      O           0.00096136    -0.00086568    -0.00007202
     84      3      O           0.00141065    -0.00067314     0.00017411
     85      3      O           0.00062831     0.01538321    -0.00060322
     86      3      O           0.00251079    -0.00077946    -0.00027084
     87      3      O           0.00280644    -0.00078734     0.00021598
     88      3      O          -0.00049012     0.00025190     0.00070722
     89      3      O           0.00163059     0.00243435    -0.00001874
     90      3      O          -0.00134815     0.00206767    -0.00396484
     91      3      O          -0.00024318     0.00057599    -0.00029889
     92      3      O          -0.00478519    -0.00929529     0.00388933
     93      3      O           0.00570822    -0.00782471    -0.00573895
     94      1      Ca          0.00096965    -0.00540753     0.00066764
     95      4      H          -0.00035240    -0.00295272    -0.00060342
     96      4      H           0.00055695    -0.00174871    -0.00058774
     97      4      H          -0.00001226    -0.00145573    -0.00045682
     98      4      H           0.00062709    -0.00106904     0.00062989
     99      4      H          -0.00136553    -0.00122390     0.00150754
    100      4      H          -0.00231433     0.00145246     0.00205472
    101      4      H           0.00231189    -0.00141962    -0.00299916
    102      4      H          -0.00083577     0.00097115    -0.00177434
    103      4      H           0.00047264     0.00283519     0.00106176
    104      4      H           0.00136185     0.00043912     0.00084486
    105      4      H           0.00044553     0.00111419     0.00002819
    106      4      H          -0.00028989     0.00042349    -0.00011559
    107      4      H           0.00046750    -0.00092296    -0.00078641
    108      4      H           0.00193918     0.00303422    -0.00224981
    109      4      H           0.00028123    -0.00073951     0.00106100
    110      4      H          -0.00306972     0.00296567     0.00226653
    111      4      H          -0.00040789    -0.00309130    -0.00036300
    112      4      H           0.00057391    -0.00180300    -0.00043131
    113      4      H          -0.00046234    -0.00193704    -0.00059952
    114      4      H           0.00051356    -0.00139319     0.00053540
    115      4      H          -0.00131187    -0.00127075     0.00168875
    116      4      H          -0.00210411     0.00148847     0.00191744
    117      4      H           0.00232336    -0.00212609    -0.00310691
    118      4      H          -0.00078120     0.00074255    -0.00162201
    119      4      H           0.00033139     0.00270637     0.00107500
    120      4      H           0.00145054     0.00034753     0.00090288
    121      4      H           0.00046456     0.00104794     0.00001736
    122      4      H          -0.00028078     0.00052471    -0.00012873
    123      4      H           0.00030288    -0.00075396    -0.00038315
    124      4      H           0.00211923     0.00316841    -0.00198361
    125      4      H           0.00015882    -0.00063994     0.00119931
    126      4      H          -0.00312921     0.00304492     0.00218510
    127      4      H           0.00002710    -0.00001232     0.00004544
    128      4      H          -0.00011440     0.00013048    -0.00001812
    129      4      H          -0.00034058     0.00042254     0.00024077
    130      4      H          -0.00001510    -0.00000315     0.00005857
    131      4      H           0.00016004    -0.00018557    -0.00005150
    132      4      H           0.00016620     0.00003313    -0.00047708
    133      4      H           0.00005249    -0.00003886     0.00005620
    134      4      H          -0.00003656     0.00017373    -0.00002273
    135      4      H          -0.00036963     0.00035245     0.00035817
    136      4      H          -0.00002923    -0.00001626    -0.00001831
    137      4      H           0.00006463    -0.00024323    -0.00002650
    138      4      H           0.00015509     0.00004035    -0.00052111
 SUM OF ATOMIC FORCES           0.03114790     0.02314271    -0.00387687     0.03899752

 STRESS| Analytical stress tensor [GPa]
 STRESS|                        x                   y                   z
 STRESS|      x        6.27486645149E-02   2.88030824951E-01   5.24658238556E-02
 STRESS|      y        2.88030824951E-01  -1.29928137191E-01  -5.15724409876E-01
 STRESS|      z        5.24658238556E-02  -5.15724409876E-01   7.30393959579E-02
 STRESS| 1/3 Trace                                             1.95330776074E-03
 STRESS| Determinant                                          -3.85736939566E-02

 STRESS| Eigenvectors and eigenvalues of the analytical stress tensor [GPa]
 STRESS|                        1                   2                   3
 STRESS| Eigenvalues  -6.48410111444E-01   1.09126612967E-01   5.45143421759E-01
 STRESS|      x          -0.345751226441      0.882682011014      0.318321467776
 STRESS|      y           0.751268708169      0.057155705715      0.657516960564
 STRESS|      z           0.562184504892      0.466482253399     -0.682893029488

 OPT| **************************************************************************
 OPT| Step number                                                              0
 OPT| Optimization method                                                   BFGS
 OPT| Total energy [hartree]                                    -1761.2448655976
 OPT| Used time [s]                                                      115.615
 OPT| **************************************************************************
 OPT| Estimated peak process memory [MiB]                                    448

 --------------------------
 OPTIMIZATION STEP:      1
 --------------------------

 Number of electrons:                                                        656
 Number of occupied orbitals:                                                328
 Number of molecular orbitals:                                               328

 Number of orbital functions:                                               1460
 Number of independent orbital functions:                                   1460

 Extrapolation method: ASPC


 SCF WAVEFUNCTION OPTIMIZATION

  ----------------------------------- OT ---------------------------------------
  Minimizer      : DIIS                : direct inversion
                                         in the iterative subspace
                                         using   7 DIIS vectors
                                         safer DIIS on
  Preconditioner : FULL_KINETIC        : inversion of T + eS
  Precond_solver : DEFAULT
  stepsize       :    0.15000000                  energy_gap     :    0.20000000
  eps_taylor     :   0.10000E-15                  max_taylor     :             4
  ----------------------------------- OT ---------------------------------------

  Step     Update method      Time    Convergence         Total energy    Change
  ------------------------------------------------------------------------------
     1 OT DIIS     0.15E+00    1.0     0.00015536     -1761.2473666643 -1.76E+03
     2 OT DIIS     0.15E+00    1.6     0.00010645     -1761.2488072761 -1.44E-03
     3 OT DIIS     0.15E+00    1.7     0.00005372     -1761.2501291773 -1.32E-03
     4 OT DIIS     0.15E+00    1.6     0.00002982     -1761.2505922257 -4.63E-04
     5 OT DIIS     0.15E+00    1.7     0.00001838     -1761.2507521158 -1.60E-04
     6 OT DIIS     0.15E+00    1.6     0.00001206     -1761.2508131936 -6.11E-05
     7 OT DIIS     0.15E+00    1.7     0.00000756     -1761.2508411210 -2.79E-05
     8 OT DIIS     0.15E+00    1.6     0.00000481     -1761.2508520208 -1.09E-05
     9 OT DIIS     0.15E+00    1.7     0.00000346     -1761.2508555622 -3.54E-06
    10 OT DIIS     0.15E+00    1.6     0.00000233     -1761.2508576308 -2.07E-06
    11 OT DIIS     0.15E+00    1.6     0.00000150     -1761.2508587218 -1.09E-06
    12 OT DIIS     0.15E+00    1.7     0.00000104     -1761.2508591329 -4.11E-07
    13 OT DIIS     0.15E+00    1.6     0.00000070     -1761.2508593380 -2.05E-07
    14 OT DIIS     0.15E+00    1.6     0.00000044     -1761.2508594388 -1.01E-07
    15 OT DIIS     0.15E+00    1.6     0.00000030     -1761.2508594734 -3.47E-08
    16 OT DIIS     0.15E+00    1.6     0.00000021     -1761.2508594897 -1.63E-08
    17 OT DIIS     0.15E+00    2.1     0.00000014     -1761.2508594974 -7.68E-09
    18 OT DIIS     0.15E+00    1.6     0.00000010     -1761.2508595005 -3.13E-09
    19 OT DIIS     0.15E+00    1.6     0.00000007     -1761.2508595024 -1.83E-09

  *** SCF run converged in    19 steps ***


  Electronic density on regular grids:       -655.9999999993        0.0000000007
  Core density on regular grids:              655.9999999997       -0.0000000003
  Total charge density on r-space grids:        0.0000000003
  Total charge density g-space grids:           0.0000000003

  Overlap energy of the core charge distribution:               0.00000059675618
  Self energy of the core charge distribution:              -4144.80997841715816
  Core Hamiltonian energy:                                   1117.17830313082277
  Hartree energy:                                            1613.77119193038334
  Exchange-correlation energy:                               -346.89518618900922
  Dispersion energy:                                           -0.49519055415381

  Total energy:                                             -1761.25085950235916

  outer SCF iter =    1 RMS gradient =   0.72E-07 energy =      -1761.2508595024
  outer SCF loop converged in   1 iterations or   19 steps


 ENERGY| Total FORCE_EVAL ( QS ) energy [a.u.]:            -1761.250859503190895

 ATOMIC FORCES in [a.u.]

 # Atom   Kind   Element          X              Y              Z
      1      1      Ca          0.00021645    -0.00036159     0.00042164
      2      1      Ca          0.00031345    -0.00056323    -0.00032108
      3      1      Ca          0.00027075     0.00037052    -0.00015638
      4      1      Ca         -0.00009223    -0.00034298     0.00007102
      5      2      Si          0.00053820    -0.00066281     0.00074017
      6      2      Si          0.00083644     0.00007028    -0.00014513
      7      2      Si         -0.00045421    -0.00017096    -0.00011087
      8      3      O          -0.00014511     0.00112165    -0.00034612
      9      3      O           0.00090153    -0.00142935    -0.00058670
     10      3      O          -0.00093887    -0.00038838    -0.00032931
     11      3      O           0.00111536    -0.00068879     0.00107418
     12      3      O          -0.00017550     0.00096181    -0.00170328
     13      3      O          -0.00009540     0.00060781     0.00037155
     14      3      O           0.00029211     0.00181199     0.00012754
     15      3      O           0.00139500    -0.00325069     0.00047620
     16      3      O           0.00077598    -0.00085444     0.00040424
     17      3      O           0.00051239     0.00088088     0.00069856
     18      3      O           0.00093928    -0.00201672     0.00004565
     19      3      O           0.00044039    -0.00069927    -0.00007754
     20      3      O           0.00014628    -0.00208375     0.00033210
     21      3      O           0.00070034    -0.00149119     0.00086730
     22      3      O           0.00104358     0.00004750    -0.00064870
     23      3      O          -0.00129255     0.00144647     0.00076712
     24      1      Ca         -0.00048702    -0.00060920    -0.00065862
     25      1      Ca         -0.00059165    -0.00034073     0.00002785
     26      1      Ca          0.00036844     0.00082977    -0.00015066
     27      1      Ca          0.00006605    -0.00048250    -0.00052007
     28      2      Si          0.00078766     0.00264903     0.00051251
     29      2      Si          0.00067956     0.00098730    -0.00051542
     30      2      Si          0.00039144    -0.00208072     0.00016578
     31      3      O           0.00053087    -0.00080861     0.00070761
     32      3      O           0.00000811     0.00127349    -0.00033234
     33      3      O          -0.00068096     0.00003351     0.00014179
     34      3      O          -0.00121581    -0.00070869     0.00104154
     35      3      O          -0.00100061    -0.00243971    -0.00002417
     36      3      O           0.00065697     0.00095670    -0.00091980
     37      3      O           0.00127113    -0.00007132    -0.00005876
     38      3      O           0.00018684     0.00406610    -0.00078035
     39      3      O           0.00106156     0.00046841     0.00001412
     40      3      O           0.00070312    -0.00054034    -0.00031322
     41      3      O          -0.00097733     0.00038413     0.00016230
     42      3      O           0.00127192     0.00021157     0.00015559
     43      3      O           0.00326592     0.00200867     0.00222435
     44      3      O          -0.00055792     0.00192772     0.00021193
     45      3      O           0.00019682    -0.00120622    -0.00069772
     46      3      O          -0.00153897    -0.00029882     0.00021365
     47      1      Ca          0.00008418    -0.00111094     0.00029764
     48      1      Ca          0.00020424    -0.00032767     0.00040227
     49      1      Ca          0.00027054    -0.00052218    -0.00030643
     50      1      Ca          0.00031212     0.00036380    -0.00013408
     51      1      Ca         -0.00009007    -0.00025289     0.00000697
     52      2      Si          0.00044310    -0.00047323     0.00062512
     53      2      Si          0.00092743     0.00032693    -0.00015389
     54      2      Si         -0.00043262    -0.00014519    -0.00015187
     55      3      O          -0.00010871     0.00109523    -0.00044859
     56      3      O           0.00089248    -0.00132108    -0.00067959
     57      3      O          -0.00113643    -0.00057204    -0.00022919
     58      3      O           0.00111254    -0.00081025     0.00106776
     59      3      O          -0.00020991     0.00091315    -0.00177629
     60      3      O          -0.00015046     0.00044868     0.00041038
     61      3      O           0.00035838     0.00176024    -0.00000063
     62      3      O           0.00156230    -0.00399866     0.00064728
     63      3      O           0.00070974    -0.00082146     0.00058955
     64      3      O           0.00052352     0.00093336     0.00076354
     65      3      O           0.00091966    -0.00207863     0.00003717
     66      3      O           0.00042695    -0.00068852    -0.00009659
     67      3      O           0.00029843    -0.00249739    -0.00064779
     68      3      O           0.00170267    -0.00010530     0.00043349
     69      3      O           0.00110135     0.00030423    -0.00056010
     70      3      O           0.00073935     0.00123217     0.00096322
     71      1      Ca         -0.00037686    -0.00044845    -0.00061994
     72      1      Ca         -0.00040761    -0.00022905     0.00005110
     73      1      Ca          0.00044435     0.00087948    -0.00021759
     74      1      Ca         -0.00004878    -0.00016134    -0.00051562
     75      2      Si          0.00072763     0.00278083     0.00053080
     76      2      Si          0.00084804     0.00132721    -0.00045934
     77      2      Si          0.00023217    -0.00173311     0.00016598
     78      3      O           0.00058954    -0.00066904     0.00062231
     79      3      O           0.00008970    -0.00024310    -0.00043919
     80      3      O          -0.00100327    -0.00028720    -0.00004820
     81      3      O          -0.00111677    -0.00078334     0.00108403
     82      3      O          -0.00104124    -0.00263060    -0.00014001
     83      3      O           0.00053310     0.00075483    -0.00101020
     84      3      O           0.00120731    -0.00019999    -0.00002239
     85      3      O           0.00015000     0.00390209    -0.00093810
     86      3      O           0.00138292     0.00003301     0.00026064
     87      3      O           0.00077566    -0.00057318    -0.00039235
     88      3      O          -0.00025068     0.00034294    -0.00002407
     89      3      O           0.00121695     0.00013729     0.00013002
     90      3      O           0.00344087     0.00201499     0.00214792
     91      3      O          -0.00038069     0.00191346     0.00030410
     92      3      O           0.00031085    -0.00143603    -0.00082710
     93      3      O          -0.00191221    -0.00047800     0.00006615
     94      1      Ca         -0.00002329    -0.00097685     0.00032582
     95      4      H          -0.00003115     0.00044370     0.00041244
     96      4      H          -0.00053485    -0.00051723    -0.00027370
     97      4      H          -0.00062293     0.00034930    -0.00009438
     98      4      H          -0.00049389    -0.00027311    -0.00037461
     99      4      H           0.00065384     0.00285247     0.00006200
    100      4      H          -0.00014800     0.00171630     0.00084040
    101      4      H          -0.00012046     0.00039126     0.00058791
    102      4      H          -0.00057651     0.00002584    -0.00017466
    103      4      H          -0.00102378    -0.00044962     0.00022691
    104      4      H          -0.00049111     0.00136675    -0.00160210
    105      4      H           0.00032687     0.00060943    -0.00018163
    106      4      H           0.00019858    -0.00099669     0.00055401
    107      4      H           0.00065563    -0.00028697    -0.00129555
    108      4      H          -0.00144130    -0.00273716     0.00152906
    109      4      H           0.00067240    -0.00038822    -0.00003201
    110      4      H           0.00091354    -0.00119229    -0.00068416
    111      4      H           0.00015201     0.00058873     0.00054648
    112      4      H          -0.00058798    -0.00035228    -0.00018805
    113      4      H           0.00025666     0.00057221    -0.00000025
    114      4      H          -0.00034894     0.00067517    -0.00016812
    115      4      H           0.00070380     0.00279377     0.00004428
    116      4      H          -0.00009145     0.00165774     0.00070458
    117      4      H          -0.00028130     0.00071130    -0.00035938
    118      4      H          -0.00096927     0.00081481    -0.00056551
    119      4      H          -0.00108603    -0.00039731     0.00023967
    120      4      H          -0.00032401     0.00132498    -0.00144640
    121      4      H           0.00029446     0.00055916    -0.00020802
    122      4      H           0.00014800    -0.00092057     0.00048424
    123      4      H           0.00042437    -0.00018725    -0.00098552
    124      4      H          -0.00139830    -0.00277125     0.00170418
    125      4      H           0.00067897    -0.00035801    -0.00000846
    126      4      H           0.00094140    -0.00096739    -0.00053258
    127      4      H           0.00027132    -0.00055114     0.00009185
    128      4      H          -0.00002622    -0.00021906    -0.00057519
    129      4      H           0.00017408     0.00062504     0.00002447
    130      4      H           0.00030981     0.00044685    -0.00015354
    131      4      H          -0.00018233     0.00000178     0.00036921
    132      4      H           0.00067404     0.00024392    -0.00017280
    133      4      H           0.00028647    -0.00056016     0.00016412
    134      4      H           0.00001579    -0.00017516    -0.00052921
    135      4      H           0.00013984     0.00060464     0.00007939
    136      4      H           0.00052889     0.00026804    -0.00018316
    137      4      H          -0.00013729     0.00001121     0.00014976
    138      4      H           0.00061848     0.00025551    -0.00016409
 SUM OF ATOMIC FORCES           0.02661039    -0.00097740     0.00153608     0.02667260

 STRESS| Analytical stress tensor [GPa]
 STRESS|                        x                   y                   z
 STRESS|      x       -2.61665088861E-02   1.53216620107E-01  -4.43104711892E-03
 STRESS|      y        1.53216620107E-01  -1.77811812522E-01  -3.09156184529E-01
 STRESS|      z       -4.43104711892E-03  -3.09156184529E-01  -5.20878975135E-03
 STRESS| 1/3 Trace                                            -6.97290370532E-02
 STRESS| Determinant                                           3.02224345773E-03

 STRESS| Eigenvectors and eigenvalues of the analytical stress tensor [GPa]
 STRESS|                        1                   2                   3
 STRESS| Eigenvalues  -4.47438395222E-01  -2.55998398807E-02   2.63851123943E-01
 STRESS|      x          -0.280804914957      0.898994043086      0.336092710769
 STRESS|      y           0.787926883742      0.015982369481      0.615561361476
 STRESS|      z           0.548014439238      0.437669138004     -0.712829502774

 OPT| **************************************************************************
 OPT| Step number                                                              1
 OPT| Optimization method                                                   BFGS
 OPT| Total energy [hartree]                                    -1761.2508595032
 OPT| Effective energy change [hartree]                            -0.0059939056
 OPT| Predicted energy change [hartree]                            -0.0052268996
 OPT| Scaling factor                                                0.0000000000
 OPT| Step size                                                     0.0685206115
 OPT| Trust radius                                                  0.3779452266
 OPT| Decrease in energy                                                     YES
 OPT| Used time [s]                                                       35.684
 OPT|
 OPT| Maximum step size                                             0.0685206115
 OPT| Convergence limit for maximum step size                       0.0030000000
 OPT| Maximum step size is converged                                          NO
 OPT|
 OPT| RMS step size                                                 0.0124336324
 OPT| Convergence limit for RMS step size                           0.0015000000
 OPT| RMS step size is converged                                              NO
 OPT|
 OPT| Maximum gradient                                              0.0040660976
 OPT| Convergence limit for maximum gradient                        0.0004500000
 OPT| Maximum gradient is converged                                           NO
 OPT|
 OPT| RMS gradient                                                  0.0009510758
 OPT| Convergence limit for RMS gradient                            0.0003000000
 OPT| RMS gradient is converged                                               NO
 OPT| **************************************************************************
 OPT| Estimated peak process memory after this step [MiB]                    509

 --------------------------
 OPTIMIZATION STEP:      2
 --------------------------

 Number of electrons:                                                        656
 Number of occupied orbitals:                                                328
 Number of molecular orbitals:                                               328

 Number of orbital functions:                                               1460
 Number of independent orbital functions:                                   1460

 Extrapolation method: ASPC


 SCF WAVEFUNCTION OPTIMIZATION

  ----------------------------------- OT ---------------------------------------
  Minimizer      : DIIS                : direct inversion
                                         in the iterative subspace
                                         using   7 DIIS vectors
                                         safer DIIS on
  Preconditioner : FULL_KINETIC        : inversion of T + eS
  Precond_solver : DEFAULT
  stepsize       :    0.15000000                  energy_gap     :    0.20000000
  eps_taylor     :   0.10000E-15                  max_taylor     :             4
  ----------------------------------- OT ---------------------------------------

  Step     Update method      Time    Convergence         Total energy    Change
  ------------------------------------------------------------------------------
     1 OT DIIS     0.15E+00    1.0     0.00015491     -1761.2492392891 -1.76E+03
     2 OT DIIS     0.15E+00    1.6     0.00010365     -1761.2506545400 -1.42E-03
     3 OT DIIS     0.15E+00    1.6     0.00005292     -1761.2518497057 -1.20E-03
     4 OT DIIS     0.15E+00    1.7     0.00002819     -1761.2522879191 -4.38E-04
     5 OT DIIS     0.15E+00    1.6     0.00001744     -1761.2524247522 -1.37E-04
     6 OT DIIS     0.15E+00    1.6     0.00001172     -1761.2524765756 -5.18E-05
     7 OT DIIS     0.15E+00    1.6     0.00000716     -1761.2525027809 -2.62E-05
     8 OT DIIS     0.15E+00    1.6     0.00000436     -1761.2525125606 -9.78E-06
     9 OT DIIS     0.15E+00    1.7     0.00000307     -1761.2525153595 -2.80E-06
    10 OT DIIS     0.15E+00    1.6     0.00000203     -1761.2525168840 -1.52E-06
    11 OT DIIS     0.15E+00    1.6     0.00000129     -1761.2525176703 -7.86E-07
    12 OT DIIS     0.15E+00    1.6     0.00000091     -1761.2525179597 -2.89E-07
    13 OT DIIS     0.15E+00    1.7     0.00000062     -1761.2525181129 -1.53E-07
    14 OT DIIS     0.15E+00    1.6     0.00000039     -1761.2525181921 -7.91E-08
    15 OT DIIS     0.15E+00    1.6     0.00000027     -1761.2525182183 -2.63E-08
    16 OT DIIS     0.15E+00    1.6     0.00000019     -1761.2525182313 -1.30E-08
    17 OT DIIS     0.15E+00    1.6     0.00000013     -1761.2525182376 -6.33E-09
    18 OT DIIS     0.15E+00    1.7     0.00000010     -1761.2525182403 -2.69E-09

  *** SCF run converged in    18 steps ***


  Electronic density on regular grids:       -655.9999999993        0.0000000007
  Core density on regular grids:              655.9999999997       -0.0000000003
  Total charge density on r-space grids:        0.0000000003
  Total charge density g-space grids:           0.0000000003

  Overlap energy of the core charge distribution:               0.00000059480374
  Self energy of the core charge distribution:              -4144.80997841715816
  Core Hamiltonian energy:                                   1117.16014832769633
  Hartree energy:                                            1613.78370703300311
  Exchange-correlation energy:                               -346.89120853534138
  Dispersion energy:                                           -0.49518724333311

  Total energy:                                             -1761.25251824032898

  outer SCF iter =    1 RMS gradient =   0.96E-07 energy =      -1761.2525182403
  outer SCF loop converged in   1 iterations or   18 steps


 ENERGY| Total FORCE_EVAL ( QS ) energy [a.u.]:            -1761.252518241891721

 ATOMIC FORCES in [a.u.]

 # Atom   Kind   Element          X              Y              Z
      1      1      Ca          0.00049411     0.00013521     0.00010716
      2      1      Ca          0.00067504    -0.00042558    -0.00030117
      3      1      Ca          0.00018579    -0.00029238    -0.00036184
      4      1      Ca          0.00052070    -0.00056464     0.00008436
      5      2      Si          0.00095335    -0.00051594    -0.00071406
      6      2      Si         -0.00027875     0.00012908    -0.00035577
      7      2      Si         -0.00045437    -0.00050571     0.00013474
      8      3      O           0.00066243     0.00039279     0.00086213
      9      3      O          -0.00150926     0.00165334     0.00026456
     10      3      O          -0.00002971    -0.00035954    -0.00022401
     11      3      O           0.00018992     0.00024369     0.00043465
     12      3      O           0.00028611    -0.00038633    -0.00139620
     13      3      O           0.00006026    -0.00034990     0.00096736
     14      3      O           0.00031796     0.00107476     0.00036247
     15      3      O           0.00048385    -0.00094169     0.00084165
     16      3      O           0.00077638     0.00022589     0.00021197
     17      3      O          -0.00009397     0.00111383     0.00031829
     18      3      O           0.00026102    -0.00058341     0.00076524
     19      3      O           0.00032705    -0.00095709     0.00056338
     20      3      O          -0.00008941    -0.00115753     0.00015422
     21      3      O          -0.00106679    -0.00075685    -0.00031549
     22      3      O          -0.00213866    -0.00277284     0.00189839
     23      3      O           0.00099984    -0.00209309    -0.00218323
     24      1      Ca          0.00006463     0.00019876     0.00079667
     25      1      Ca         -0.00018160     0.00028299     0.00047167
     26      1      Ca          0.00066630     0.00034005     0.00019003
     27      1      Ca          0.00018374    -0.00023304     0.00023747
     28      2      Si         -0.00038798     0.00030800     0.00093754
     29      2      Si         -0.00054898     0.00047039    -0.00006602
     30      2      Si          0.00073899    -0.00074969     0.00011375
     31      3      O           0.00042257     0.00075775    -0.00012732
     32      3      O          -0.00073269     0.00141543     0.00019804
     33      3      O          -0.00029551     0.00001686     0.00067777
     34      3      O          -0.00114070    -0.00024680    -0.00087546
     35      3      O           0.00145233     0.00032021     0.00008373
     36      3      O           0.00087131     0.00032711    -0.00032435
     37      3      O           0.00060601     0.00073155     0.00011375
     38      3      O           0.00032438     0.00223761    -0.00045778
     39      3      O          -0.00089754    -0.00033971    -0.00066178
     40      3      O          -0.00007787     0.00040957     0.00032836
     41      3      O          -0.00112409    -0.00023718    -0.00022085
     42      3      O           0.00027432    -0.00114646    -0.00035494
     43      3      O          -0.00006045     0.00030628     0.00001179
     44      3      O           0.00002026    -0.00169680    -0.00044526
     45      3      O           0.00099757     0.00305232    -0.00133260
     46      3      O          -0.00083444     0.00337655     0.00245596
     47      1      Ca         -0.00050691     0.00047503    -0.00005163
     48      1      Ca          0.00040813     0.00011364     0.00003263
     49      1      Ca          0.00065948    -0.00024169    -0.00032990
     50      1      Ca          0.00010532    -0.00022255    -0.00041708
     51      1      Ca          0.00057020    -0.00079386    -0.00005195
     52      2      Si          0.00104602    -0.00064516    -0.00078203
     53      2      Si         -0.00009867     0.00012990    -0.00040200
     54      2      Si         -0.00017919    -0.00033999    -0.00003584
     55      3      O           0.00066300     0.00023623     0.00086194
     56      3      O          -0.00146581     0.00148499     0.00021253
     57      3      O          -0.00013548    -0.00034364    -0.00003845
     58      3      O           0.00028676     0.00019558     0.00040877
     59      3      O           0.00012517    -0.00033828    -0.00107575
     60      3      O          -0.00013794    -0.00055138     0.00113497
     61      3      O           0.00020651     0.00118320     0.00034467
     62      3      O          -0.00001224    -0.00121869     0.00059486
     63      3      O           0.00066767     0.00031785     0.00028721
     64      3      O          -0.00019231     0.00116293     0.00046291
     65      3      O           0.00035892    -0.00048150     0.00081459
     66      3      O           0.00029107    -0.00093278     0.00073338
     67      3      O           0.00013639    -0.00048170    -0.00052955
     68      3      O          -0.00031084    -0.00090117    -0.00043395
     69      3      O          -0.00196550    -0.00277968     0.00186829
     70      3      O           0.00126778    -0.00206594    -0.00204888
     71      1      Ca          0.00016849     0.00016616     0.00090678
     72      1      Ca          0.00022633     0.00000844     0.00034920
     73      1      Ca          0.00061265     0.00019127     0.00025255
     74      1      Ca          0.00029752    -0.00007429     0.00018753
     75      2      Si         -0.00033650     0.00037816     0.00081384
     76      2      Si         -0.00066788     0.00042340    -0.00009813
     77      2      Si          0.00072962    -0.00101493     0.00030737
     78      3      O           0.00052533     0.00079712    -0.00008936
     79      3      O          -0.00026878    -0.00028586    -0.00008156
     80      3      O          -0.00026731    -0.00001749     0.00094251
     81      3      O          -0.00103414    -0.00021716    -0.00091097
     82      3      O           0.00153764     0.00029682    -0.00019798
     83      3      O           0.00101574     0.00034074    -0.00025915
     84      3      O           0.00078626     0.00056075    -0.00001602
     85      3      O           0.00015623     0.00220445    -0.00046826
     86      3      O          -0.00048087    -0.00000272    -0.00066818
     87      3      O          -0.00010643     0.00054456     0.00032482
     88      3      O          -0.00050974     0.00007811    -0.00025161
     89      3      O           0.00055607    -0.00109210    -0.00048086
     90      3      O          -0.00032975    -0.00035415    -0.00015123
     91      3      O          -0.00008879    -0.00156862    -0.00047793
     92      3      O           0.00108600     0.00294282    -0.00139661
     93      3      O          -0.00038870     0.00341266     0.00253890
     94      1      Ca         -0.00028985     0.00056640    -0.00005202
     95      4      H          -0.00066908     0.00047974     0.00060750
     96      4      H           0.00023617    -0.00035119    -0.00007418
     97      4      H          -0.00005199     0.00026237     0.00032318
     98      4      H           0.00060956    -0.00018293     0.00004190
     99      4      H           0.00182980     0.00370811    -0.00157983
    100      4      H           0.00122801     0.00048388     0.00010845
    101      4      H          -0.00123965     0.00202029     0.00176653
    102      4      H          -0.00060145     0.00022602     0.00084234
    103      4      H           0.00095745     0.00169049    -0.00133437
    104      4      H           0.00003007    -0.00008153     0.00045561
    105      4      H           0.00047204     0.00070825    -0.00000305
    106      4      H          -0.00046529     0.00081611     0.00051311
    107      4      H           0.00014440    -0.00106172    -0.00097043
    108      4      H          -0.00147958    -0.00500459     0.00143812
    109      4      H           0.00015118    -0.00039854    -0.00047762
    110      4      H           0.00159441    -0.00260494    -0.00167901
    111      4      H          -0.00044278     0.00048150     0.00025491
    112      4      H           0.00004981    -0.00024151    -0.00009647
    113      4      H           0.00118304     0.00078426     0.00032641
    114      4      H           0.00074416     0.00107265     0.00020066
    115      4      H           0.00169134     0.00370880    -0.00150538
    116      4      H           0.00121886     0.00058689    -0.00000743
    117      4      H          -0.00075736     0.00227134     0.00196107
    118      4      H          -0.00021930     0.00036860    -0.00016976
    119      4      H           0.00103053     0.00159050    -0.00129319
    120      4      H           0.00036277     0.00004364     0.00057481
    121      4      H           0.00046123     0.00076971    -0.00000735
    122      4      H          -0.00044137     0.00064031     0.00060258
    123      4      H           0.00003583    -0.00108021    -0.00085388
    124      4      H          -0.00153637    -0.00519807     0.00158768
    125      4      H           0.00003414    -0.00036866    -0.00051554
    126      4      H           0.00145516    -0.00248982    -0.00168983
    127      4      H           0.00052346    -0.00083839    -0.00021868
    128      4      H           0.00019618    -0.00063851    -0.00089598
    129      4      H           0.00024582     0.00034095    -0.00025481
    130      4      H           0.00026339     0.00077222    -0.00018130
    131      4      H          -0.00063043    -0.00002317     0.00043968
    132      4      H           0.00073654     0.00052826     0.00011426
    133      4      H           0.00050689    -0.00081917    -0.00023469
    134      4      H           0.00020561    -0.00061351    -0.00088214
    135      4      H           0.00021027     0.00032847    -0.00025521
    136      4      H           0.00048954     0.00028915    -0.00022571
    137      4      H          -0.00045299    -0.00004731     0.00014384
    138      4      H           0.00064525     0.00048039     0.00012923
 SUM OF ATOMIC FORCES           0.01714540     0.00686283     0.00347841     0.01879262

 STRESS| Analytical stress tensor [GPa]
 STRESS|                        x                   y                   z
 STRESS|      x        1.51605543693E-02   5.43502993863E-02   1.47754645953E-03
 STRESS|      y        5.43502993863E-02  -2.31573293167E-01  -2.23027757583E-01
 STRESS|      z        1.47754645953E-03  -2.23027757583E-01  -6.21316416616E-02
 STRESS| 1/3 Trace                                            -9.28481268199E-02
 STRESS| Determinant                                          -3.87757307243E-04

 STRESS| Eigenvectors and eigenvalues of the analytical stress tensor [GPa]
 STRESS|                        1                   2                   3
 STRESS| Eigenvalues  -3.90572319896E-01   9.70228428158E-03   1.02325655155E-01
 STRESS|      x          -0.112124490579      0.934969802166      0.336540588414
 STRESS|      y           0.821840380350     -0.103123755502      0.560306951838
 STRESS|      z           0.558575409268      0.339406776728     -0.756833239275

 OPT| **************************************************************************
 OPT| Step number                                                              2
 OPT| Optimization method                                                   BFGS
 OPT| Total energy [hartree]                                    -1761.2525182419
 OPT| Effective energy change [hartree]                            -0.0016587387
 OPT| Predicted energy change [hartree]                            -0.0014873884
 OPT| Scaling factor                                                0.0000000000
 OPT| Step size                                                     0.0329801279
 OPT| Trust radius                                                  0.3779452266
 OPT| Decrease in energy                                                     YES
 OPT| Used time [s]                                                       33.503
 OPT|
 OPT| Maximum step size                                             0.0329801279
 OPT| Convergence limit for maximum step size                       0.0030000000
 OPT| Maximum step size is converged                                          NO
 OPT|
 OPT| RMS step size                                                 0.0092263875
 OPT| Convergence limit for RMS step size                           0.0015000000
 OPT| RMS step size is converged                                              NO
 OPT|
 OPT| Maximum gradient                                              0.0051980666
 OPT| Convergence limit for maximum gradient                        0.0004500000
 OPT| Maximum gradient is converged                                           NO
 OPT|
 OPT| RMS gradient                                                  0.0009752155
 OPT| Convergence limit for RMS gradient                            0.0003000000
 OPT| RMS gradient is converged                                               NO
 OPT| **************************************************************************
 OPT| Estimated peak process memory after this step [MiB]                    510

 --------------------------
 OPTIMIZATION STEP:      3
 --------------------------

 Number of electrons:                                                        656
 Number of occupied orbitals:                                                328
 Number of molecular orbitals:                                               328

 Number of orbital functions:                                               1460
 Number of independent orbital functions:                                   1460

 Extrapolation method: ASPC


 SCF WAVEFUNCTION OPTIMIZATION

  ----------------------------------- OT ---------------------------------------
  Minimizer      : DIIS                : direct inversion
                                         in the iterative subspace
                                         using   7 DIIS vectors
                                         safer DIIS on
  Preconditioner : FULL_KINETIC        : inversion of T + eS
  Precond_solver : DEFAULT
  stepsize       :    0.15000000                  energy_gap     :    0.20000000
  eps_taylor     :   0.10000E-15                  max_taylor     :             4
  ----------------------------------- OT ---------------------------------------

  Step     Update method      Time    Convergence         Total energy    Change
  ------------------------------------------------------------------------------
     1 OT DIIS     0.15E+00    1.0     0.00013052     -1761.2512102090 -1.76E+03
     2 OT DIIS     0.15E+00    2.1     0.00008511     -1761.2522021106 -9.92E-04
     3 OT DIIS     0.15E+00    1.6     0.00004442     -1761.2529734154 -7.71E-04
     4 OT DIIS     0.15E+00    1.6     0.00002313     -1761.2532808374 -3.07E-04
     5 OT DIIS     0.15E+00    1.6     0.00001481     -1761.2533703119 -8.95E-05
     6 OT DIIS     0.15E+00    1.6     0.00001011     -1761.2534078944 -3.76E-05
     7 OT DIIS     0.15E+00    1.7     0.00000631     -1761.2534279631 -2.01E-05
     8 OT DIIS     0.15E+00    1.6     0.00000391     -1761.2534358183 -7.86E-06
     9 OT DIIS     0.15E+00    1.6     0.00000274     -1761.2534382065 -2.39E-06
    10 OT DIIS     0.15E+00    1.6     0.00000182     -1761.2534394833 -1.28E-06
    11 OT DIIS     0.15E+00    1.6     0.00000118     -1761.2534401160 -6.33E-07
    12 OT DIIS     0.15E+00    1.6     0.00000083     -1761.2534403633 -2.47E-07
    13 OT DIIS     0.15E+00    1.6     0.00000057     -1761.2534404914 -1.28E-07
    14 OT DIIS     0.15E+00    1.6     0.00000037     -1761.2534405585 -6.71E-08
    15 OT DIIS     0.15E+00    1.6     0.00000026     -1761.2534405817 -2.32E-08
    16 OT DIIS     0.15E+00    1.7     0.00000018     -1761.2534405935 -1.18E-08
    17 OT DIIS     0.15E+00    1.6     0.00000013     -1761.2534405991 -5.59E-09
    18 OT DIIS     0.15E+00    1.6     0.00000010     -1761.2534406018 -2.67E-09

  *** SCF run converged in    18 steps ***


  Electronic density on regular grids:       -655.9999999993        0.0000000007
  Core density on regular grids:              655.9999999997       -0.0000000003
  Total charge density on r-space grids:        0.0000000003
  Total charge density g-space grids:           0.0000000003

  Overlap energy of the core charge distribution:               0.00000059431717
  Self energy of the core charge distribution:              -4144.80997841715816
  Core Hamiltonian energy:                                   1117.15175677282741
  Hartree energy:                                            1613.78971738466635
  Exchange-correlation energy:                               -346.88975499700143
  Dispersion energy:                                           -0.49518193941939

  Total energy:                                             -1761.25344060176781

  outer SCF iter =    1 RMS gradient =   0.97E-07 energy =      -1761.2534406018
  outer SCF loop converged in   1 iterations or   18 steps


 ENERGY| Total FORCE_EVAL ( QS ) energy [a.u.]:            -1761.253440603326226

 ATOMIC FORCES in [a.u.]

 # Atom   Kind   Element          X              Y              Z
      1      1      Ca          0.00046473    -0.00006502     0.00034813
      2      1      Ca          0.00049859    -0.00027668    -0.00005963
      3      1      Ca         -0.00002156    -0.00018784     0.00029055
      4      1      Ca          0.00055795    -0.00040439     0.00048205
      5      2      Si          0.00012096    -0.00013574    -0.00083970
      6      2      Si         -0.00034029     0.00009678     0.00024803
      7      2      Si         -0.00026036    -0.00030965     0.00048180
      8      3      O           0.00072062    -0.00082533     0.00006353
      9      3      O          -0.00011462     0.00023199    -0.00057912
     10      3      O           0.00041750    -0.00007963    -0.00059033
     11      3      O          -0.00004930     0.00083178    -0.00007109
     12      3      O           0.00025278     0.00008154    -0.00113152
     13      3      O           0.00000616    -0.00056168     0.00096430
     14      3      O          -0.00015004    -0.00005500     0.00002978
     15      3      O          -0.00002648     0.00050770     0.00050989
     16      3      O           0.00062270     0.00081672    -0.00058388
     17      3      O          -0.00047297     0.00069422     0.00027303
     18      3      O          -0.00108613     0.00240841     0.00040886
     19      3      O           0.00055336    -0.00101925    -0.00002906
     20      3      O          -0.00027659     0.00013225     0.00055327
     21      3      O          -0.00060758     0.00053469    -0.00002641
     22      3      O          -0.00185521    -0.00244832     0.00252465
     23      3      O           0.00176876    -0.00285988    -0.00230191
     24      1      Ca         -0.00024527     0.00008918     0.00067390
     25      1      Ca         -0.00030854    -0.00007209     0.00039738
     26      1      Ca          0.00013387    -0.00000655    -0.00027836
     27      1      Ca         -0.00038470     0.00010614     0.00022646
     28      2      Si         -0.00018827    -0.00014950     0.00056916
     29      2      Si          0.00055915     0.00056077     0.00020386
     30      2      Si          0.00103497    -0.00009285    -0.00078654
     31      3      O           0.00084869     0.00054362     0.00008458
     32      3      O          -0.00041056     0.00107117     0.00045873
     33      3      O           0.00012756     0.00052117    -0.00101182
     34      3      O          -0.00081109     0.00015450    -0.00030995
     35      3      O          -0.00003743     0.00000169     0.00028090
     36      3      O          -0.00010423     0.00019954     0.00019929
     37      3      O          -0.00109668     0.00014471     0.00080027
     38      3      O           0.00007619     0.00128143     0.00021972
     39      3      O          -0.00114774     0.00021449     0.00025611
     40      3      O          -0.00065044     0.00048620     0.00063891
     41      3      O          -0.00064190    -0.00015524    -0.00013903
     42      3      O          -0.00095499     0.00032208     0.00031597
     43      3      O          -0.00033900    -0.00167145     0.00054470
     44      3      O           0.00040848    -0.00186205    -0.00011844
     45      3      O           0.00096154     0.00271638    -0.00135670
     46      3      O          -0.00097895     0.00246625     0.00161936
     47      1      Ca         -0.00032780     0.00063360    -0.00018767
     48      1      Ca          0.00053377    -0.00005434     0.00036281
     49      1      Ca          0.00049845    -0.00018909    -0.00010340
     50      1      Ca          0.00001268    -0.00013673     0.00029700
     51      1      Ca          0.00053302    -0.00043751     0.00030037
     52      2      Si          0.00007617    -0.00015581    -0.00086629
     53      2      Si         -0.00005599     0.00002266     0.00017772
     54      2      Si         -0.00023413    -0.00009724     0.00042474
     55      3      O           0.00059138    -0.00078925     0.00012385
     56      3      O          -0.00017671     0.00019285    -0.00045867
     57      3      O           0.00034517    -0.00007517    -0.00028974
     58      3      O          -0.00020399     0.00080180    -0.00001851
     59      3      O           0.00018501     0.00003370    -0.00067494
     60      3      O           0.00011990    -0.00066529     0.00111996
     61      3      O          -0.00021500     0.00003749     0.00016819
     62      3      O          -0.00061261     0.00088111     0.00027375
     63      3      O           0.00054991     0.00081231    -0.00045544
     64      3      O          -0.00060968     0.00074988     0.00038744
     65      3      O          -0.00111535     0.00236078     0.00041852
     66      3      O           0.00047053    -0.00102189    -0.00010793
     67      3      O          -0.00013829     0.00081185     0.00010623
     68      3      O          -0.00068543    -0.00068855    -0.00017286
     69      3      O          -0.00184316    -0.00223960     0.00240587
     70      3      O           0.00182392    -0.00291521    -0.00216609
     71      1      Ca         -0.00004414     0.00016680     0.00075077
     72      1      Ca          0.00016063    -0.00024155     0.00012481
     73      1      Ca          0.00022010    -0.00019235    -0.00028848
     74      1      Ca         -0.00024438     0.00037023     0.00008659
     75      2      Si         -0.00015236    -0.00010116     0.00053275
     76      2      Si          0.00055272     0.00048880     0.00016016
     77      2      Si          0.00100070    -0.00009533    -0.00061562
     78      3      O           0.00087550     0.00043473     0.00021170
     79      3      O          -0.00015505     0.00008780     0.00010671
     80      3      O           0.00037386     0.00059631    -0.00099755
     81      3      O          -0.00075562     0.00016267    -0.00036228
     82      3      O          -0.00000865     0.00001394     0.00030833
     83      3      O           0.00032778     0.00047062     0.00020717
     84      3      O          -0.00114092     0.00019748     0.00084759
     85      3      O          -0.00010203     0.00127915     0.00022682
     86      3      O          -0.00085672     0.00017260     0.00001511
     87      3      O          -0.00053641     0.00032691     0.00068171
     88      3      O          -0.00059013     0.00002763    -0.00007022
     89      3      O          -0.00063010     0.00025091     0.00036430
     90      3      O          -0.00076553    -0.00154524     0.00072402
     91      3      O           0.00034568    -0.00175473    -0.00023831
     92      3      O           0.00093221     0.00280994    -0.00137857
     93      3      O          -0.00104172     0.00249126     0.00164016
     94      1      Ca          0.00007093     0.00066307    -0.00019380
     95      4      H          -0.00061727     0.00024596     0.00042024
     96      4      H           0.00035991    -0.00052514    -0.00008565
     97      4      H          -0.00033200    -0.00009944     0.00019799
     98      4      H           0.00057414    -0.00025906     0.00000196
     99      4      H           0.00178808     0.00310227    -0.00186188
    100      4      H           0.00113248     0.00002450    -0.00028962
    101      4      H          -0.00153776     0.00213573     0.00181888
    102      4      H          -0.00066492     0.00009190     0.00063266
    103      4      H           0.00059188     0.00114703    -0.00126749
    104      4      H           0.00036901     0.00028707     0.00007960
    105      4      H           0.00011809     0.00008462    -0.00001030
    106      4      H          -0.00046085     0.00130031     0.00025395
    107      4      H          -0.00003820    -0.00068232    -0.00050206
    108      4      H          -0.00119121    -0.00428880     0.00126469
[...]
 flops   421 x    32 x    62          41830021120       0.0%    100.0%      0.0%     
 flops    96 x    32 x    50          42928128000       0.0%    100.0%      0.0%     
 flops     5 x    32 x     5          43490304000       0.0%    100.0%      0.0%     
 flops     5 x    13 x    32          45628211200       0.0%    100.0%      0.0%     
 flops    13 x     5 x    32          45628211200       0.0%    100.0%      0.0%     
 flops   104 x    32 x    50          46505472000       0.0%    100.0%      0.0%     
 flops   390 x    32 x    50          46874880000       0.0%    100.0%      0.0%     
 flops    64 x    32 x    62          47316336640       0.0%    100.0%      0.0%     
 flops    14 x    32 x     5          49816166400       0.0%    100.0%      0.0%     
 flops     5 x    32 x    14          49816166400       0.0%    100.0%      0.0%     
 flops   313 x    32 x    57          50034727680       0.0%    100.0%      0.0%     
 flops   421 x    32 x    50          50600832000       0.0%    100.0%      0.0%     
 flops    14 x    13 x    32          52265041920       0.0%    100.0%      0.0%     
 flops    13 x    14 x    32          52265041920       0.0%    100.0%      0.0%     
 flops   336 x    32 x    57          53711400960       0.0%    100.0%      0.0%     
 flops    14 x    32 x    14          57062154240       0.0%    100.0%      0.0%     
 flops    96 x    32 x    57          57094410240       0.0%    100.0%      0.0%     
 flops    64 x    32 x    50          57237504000       0.0%    100.0%      0.0%     
 flops   104 x    32 x    57          61852277760       0.0%    100.0%      0.0%     
 flops   390 x    32 x    57          62343590400       0.0%    100.0%      0.0%     
 flops    96 x    32 x    32          67220275200       0.0%    100.0%      0.0%     
 flops   421 x    32 x    57          67299106560       0.0%    100.0%      0.0%     
 flops   104 x    32 x    32          72821964800       0.0%    100.0%      0.0%     
 flops    64 x    32 x    57          76125880320       0.0%    100.0%      0.0%     
 flops    64 x    32 x    32          89627033600       0.0%    100.0%      0.0%     
 flops   313 x    32 x    32         184935424000       0.0%    100.0%      0.0%     
 flops     5 x    32 x    13         195311001600       0.0%    100.0%      0.0%     
 flops    13 x    32 x     5         195311001600       0.0%    100.0%      0.0%     
 flops   336 x    32 x    32         198524928000       0.0%    100.0%      0.0%     
 flops    13 x    13 x    32         207608360960       0.0%    100.0%      0.0%     
 flops    14 x    32 x    13         223719874560       0.0%    100.0%      0.0%     
 flops    13 x    32 x    14         223719874560       0.0%    100.0%      0.0%     
 flops   390 x    32 x    32         230430720000       0.0%    100.0%      0.0%     
 flops   421 x    32 x    32         248747008000       0.0%    100.0%      0.0%     
 flops    13 x    32 x    13         877123952640       0.0%    100.0%      0.0%     
 flops inhomo. stacks                747169974720     100.0%      0.0%      0.0%
 flops total                         5.363843E+12      13.9%     86.1%      0.0%
 flops max/rank                    251.834483E+09      15.0%     85.0%      0.0%
 matmuls inhomo. stacks                   1170180     100.0%      0.0%      0.0%
 matmuls total                          369808978       0.3%     99.7%      0.0%
 number of processed stacks              24055636       4.9%     95.1%      0.0%
 average stack size                                     1.0      16.1       0.0
 marketing flops                     5.657052E+12
 -------------------------------------------------------------------------------
 # multiplications                          11389
 max memory usage/rank             534.859776E+06
 # max total images/rank                       13
 # max 3D layers                                1
 # MPI messages exchanged                22504664
 MPI messages size (bytes):
  total size                         1.529868E+12
  min size                           0.000000E+00
  max size                         381.680000E+03
  average size                      67.980039E+03
 MPI breakdown and total messages size (bytes):
             size <=      128            10793255                        0
       128 < size <=     8192              893559               5897163008
      8192 < size <=    32768             1474850              20538355200
     32768 < size <=   131072             4916000             303187488000
    131072 < size <=  4194304             4427000            1199571040000
   4194304 < size <= 16777216                   0                        0
  16777216 < size                               0                        0
 -------------------------------------------------------------------------------

 *** WARNING in dbcsr_mm.F:301 :: Using a non-square number of MPI ranks ***
 *** might lead to poor performance. Used ranks: 52 Suggested: 49 100    ***

 -------------------------------------------------------------------------------
 -                                                                             -
 -                      DBCSR MESSAGE PASSING PERFORMANCE                      -
 -                                                                             -
 -------------------------------------------------------------------------------
 ROUTINE             CALLS      AVE VOLUME [Bytes]
 MP_Bcast              113                     12.
 MP_Allreduce        61381                      9.
 MP_Alltoall         38922                  23358.
 MP_ISend          1024916                  31421.
 MP_IRecv           991106                  31191.
 -------------------------------------------------------------------------------

 -------------------------------------------------------------------------------
 -                                                                             -
 -                                DBM STATISTICS                               -
 -                                                                             -
 -------------------------------------------------------------------------------
    M  x    N  x    K                                          COUNT     PERCENT
 -------------------------------------------------------------------------------

 -------------------------------------------------------------------------------
 -                                                                             -
 -                                GRID STATISTICS                              -
 -                                                                             -
 -------------------------------------------------------------------------------
 LP    KERNEL             BACKEND                              COUNT     PERCENT
 3     collocate general  CPU                               65697392      22.39%
 4     collocate general  CPU                               62990128      21.47%
 3     integrate general  CPU                               62452648      21.28%
 4     integrate general  CPU                               59658902      20.33%
 2     collocate general  CPU                               17917852       6.11%
 2     integrate general  CPU                               16970169       5.78%
 6     integrate general  CPU                                3369093       1.15%
 7     integrate general  CPU                                3230263       1.10%
 5     integrate general  CPU                                 918952       0.31%
 0     collocate general  CPU                                 236808       0.08%
 -------------------------------------------------------------------------------

 MEMORY| Estimated peak process memory [MiB]                                 511

 -------------------------------------------------------------------------------
 -                                                                             -
 -                         MESSAGE PASSING PERFORMANCE                         -
 -                                                                             -
 -------------------------------------------------------------------------------

 ROUTINE             CALLS      AVE VOLUME [Bytes]
 MP_Group                4
 MP_Bcast             4511                 169349.
 MP_Allreduce        15312                    372.
 MP_Sync                84
 MP_Alltoall         14800                2632383.
 MP_SendRecv        102000                  59550.
 MP_ISendRecv        95319                  63072.
 MP_Wait            184535
 MP_comm_split          48
 MP_ISend            81344                 237201.
 MP_IRecv            81344                 237200.
 -------------------------------------------------------------------------------


 -------------------------------------------------------------------------------
 -                                                                             -
 -                           R E F E R E N C E S                               -
 -                                                                             -
 -------------------------------------------------------------------------------
 
 CP2K version 2024.3, the CP2K developers group (2024).
 CP2K is freely available from https://www.cp2k.org/ .
 
 T. D. Kuehne, M. Iannuzzi, M. Del Ben, V. V. Rybkin, P. Seewald, F. Stein, T. 
 Laino, R. Z. Khaliullin, O. Schuett, F. Schiffmann, D. Golze, J. Wilhelm, S. 
 Chulkov, M. H. Bani-Hashemian, V. Weber, U. Borstnik, M. Taillefumier, A. S. 
 Jakobovits, A. Lazzaro, H. Pabst, T. Mueller, R. Schade, M. Guidon, S. 
 Andermatt, N. Holmberg, G. K. Schenter, A. Hehn, A. Bussy, F. Belleflamme, G. 
 Tabacchi, A. Gloess, M. Lass, I. Bethune, C. J. Mundy, C. Plessl, M. Watkins, 
 J. VandeVondele, M. Krack, J. Hutter.
 J. Chem. Phys. 152, 194103 (2020).
 CP2K: An electronic structure and molecular dynamics software package - 
 Quickstep: Efficient and accurate electronic structure calculations.
 https://doi.org/10.1063/5.0007045

 L. Goerigk, A. Hansen, C. Bauer, S. Ehrlich, A. Najibi, S. Grimme.
 Phys. Chem. Chem. Phys. 19, 32184-32215 (2017).
 A look at the density functional theory zoo with the advanced GMTKN55 database 
 for general main group thermochemistry, kinetics and noncovalent interactions.
 https://doi.org/10.1039/C7CP04913G

 O. Schuett, P. Messmer, J. Hutter, J. VandeVondele.
 Electronic Structure Calculations on Graphics Processing Units, 173-190 (2016).
 GPU-Accelerated Sparse Matrix-Matrix Multiplication for Linear Scaling Density 
 Functional Theory.
 https://doi.org/10.1002/9781118670712.ch8

 A. Heinecke, G. Henry, M. Hutchinson, H. Pabst.
 Proceedings of Intl. Supercomputing Conference, 981-991 (2016).
 LIBXSMM: Accelerating Small Matrix Multiplications by Runtime Code Generation.
 https://doi.org/10.1109/SC.2016.83

 J. Hutter, M. Iannuzzi, F. Schiffmann, J. VandeVondele.
 WIREs Comput Mol Sci. 4, 15-25 (2014).
 CP2K: atomistic simulations of condensed matter systems.
 https://doi.org/10.1002/wcms.1159

 U. Borstnik, J. VandeVondele, V. Weber, J. Hutter.
 Parallel Comput. 40, 47-58 (2014).
 Sparse matrix multiplication: The distributed block-compressed sparse row 
 library.
 https://doi.org/10.1016/j.parco.2014.03.012

 A. Marek, V. Blum, R. Johanni, V. Havu, B. Lang, T. Auckenthaler, A. Heinecke, 
 H. Bungartz, H. Lederer.
 J. Phys. Condens. Matter 26, 213201 (2014).
 The ELPA library: scalable parallel eigenvalue solutions for electronic 
 structure theory and computational science.
 https://doi.org/10.1088/0953-8984/26/21/213201

 S. Grimme, S. Ehrlich, L. Goerigk.
 J. Comput. Chem. 32, 1456 (2011).
 Effect of the damping function in dispersion corrected density functional 
 theory.
 https://doi.org/10.1002/jcc.21759

 S. Grimme, J. Antony, S. Ehrlich, H. Krieg.
 J. Chem. Phys. 132, 154104 (2010).
 A consistent and accurate ab initio parametrization of density functional 
 dispersion correction (DFT-D) for the 94 elements H-Pu.
 https://doi.org/10.1063/1.3382344

 J. P. Perdew, A. Ruzsinszky, G. I. Csonka, O. A. Vydrov, G. E. Scuseria, L. A. 
 Constantin, X. Zhou, K. Burke.
 Phys. Rev. Lett. 100, 136406-136409 (2008).
 Restoring the Density-Gradient Expansion for Exchange in Solids and Surfaces.
 https://doi.org/10.1103/PhysRevLett.100.136406

 J. VandeVondele, J. Hutter.
 J. Chem. Phys. 127, 114105 (2007).
 Gaussian basis sets for accurate calculations on molecular systems in gas and 
 condensed phases.
 https://doi.org/10.1063/1.2770708

 T. D. Kühne, M. Krack, F. R. Mohamed, M. Parrinello.
 Phys. Rev. Lett. 98, 066401 (2007).
 Efficient and accurate Car-Parrinello-like approach to Born-Oppenheimer 
 molecular dynamics.
 https://doi.org/10.1103/PhysRevLett.98.066401

 J. VandeVondele, M. Krack, F. Mohamed, M. Parrinello, T. Chassaing, J. Hutter.
 Comput. Phys. Commun. 167, 103-128 (2005).
 QUICKSTEP: Fast and accurate density functional calculations using a mixed 
 Gaussian and plane waves approach.
 https://doi.org/10.1016/j.cpc.2004.12.014

 M. Krack.
 Theor. Chem. Acc. 114, 145-152 (2005).
 Pseudopotentials for H to Kr optimized for gradient-corrected 
 exchange-correlation functionals.
 https://doi.org/10.1007/s00214-005-0655-y

 M. Frigo, S. G. Johnson.
 Proc. IEEE 93, 216-231 (2005).
 The design and implementation of FFTW3.
 https://doi.org/10.1109/JPROC.2004.840301

 J. Kolafa.
 J. Comput. Chem. 25, 335-342 (2004).
 Time-reversible always stable predictor-corrector method for molecular dynamics 
 of polarizable molecules.
 https://doi.org/10.1002/jcc.10385

 J. VandeVondele, J. Hutter.
 J. Chem. Phys. 118, 4365-4369 (2003).
 An efficient orbital transformation method for electronic structure 
 calculations.
 https://doi.org/10.1063/1.1543154

 C. Hartwigsen, S. Goedecker, J. Hutter.
 Phys. Rev. B 58, 3641-3662 (1998).
 Relativistic separable dual-space Gaussian pseudopotentials from H to Rn.
 https://doi.org/10.1103/PhysRevB.58.3641

 G. Lippert, J. Hutter, M. Parrinello.
 Mol. Phys. 92, 477-487 (1997).
 A hybrid Gaussian and plane wave density functional scheme.
 https://doi.org/10.1080/002689797170220

 S. Goedecker, M. Teter, J. Hutter.
 Phys. Rev. B 54, 1703-1710 (1996).
 Separable dual-space Gaussian pseudopotentials.
 https://doi.org/10.1103/PhysRevB.54.1703

 J. P. Perdew, K. Burke, M. Ernzerhof.
 Phys. Rev. Lett. 77, 3865-3868 (1996).
 Generalized gradient approximation made simple.
 https://doi.org/10.1103/PhysRevLett.77.3865


 -------------------------------------------------------------------------------
 -                                                                             -
 -                                T I M I N G                                  -
 -                                                                             -
 -------------------------------------------------------------------------------
 SUBROUTINE                       CALLS  ASD         SELF TIME        TOTAL TIME
                                MAXIMUM       AVERAGE  MAXIMUM  AVERAGE  MAXIMUM
 CP2K                                 1  1.0    0.012    0.032 1112.654 1112.655
 cp_geo_opt                           1  2.0    0.000    0.000 1112.303 1112.304
 geoopt_bfgs                          1  3.0    0.013    0.016 1112.303 1112.304
 cp_eval_at                          33  4.0    0.006    0.021 1111.298 1111.309
 qs_forces                           32  5.0    0.008    0.008 1093.303 1093.304
 qs_energies                         33  6.0    0.003    0.003 1027.618 1027.632
 scf_env_do_scf                      33  7.0    0.002    0.004  987.414  987.417
 scf_env_do_scf_inner_loop          591  8.0    0.015    0.071  953.934  954.085
 rebuild_ks_matrix                  623  9.8    0.003    0.003  591.574  592.442
 qs_ks_build_kohn_sham_matrix       623 10.8    0.116    0.125  591.571  592.439
 qs_ks_update_qs_env                626  9.0    0.005    0.007  530.527  531.149
 sum_up_and_integrate               623 11.8    0.016    0.027  448.414  448.648
 integrate_v_rspace                 623 12.8    0.029    0.041  447.937  448.312
 qs_rho_update_rho_low              624  9.0    0.003    0.004  426.218  426.551
 calculate_rho_elec                 624 10.0    0.320    0.364  426.215  426.547
 grid_integrate_task_list           623 13.8  361.178  374.324  361.178  374.324
 grid_collocate_task_list           624 11.0  352.665  367.988  352.665  367.988
 fft_wrap_pw1pw2                  10629 14.2    0.446    0.509  127.557  134.429
 fft_wrap_pw1pw2_250               6888 15.6    6.630    6.922  120.709  126.527
 qs_vxc_create                      623 11.8    0.032    0.040  108.327  110.573
 xc_vxc_pw_create                   623 12.8    2.738    3.248  108.294  110.544
 fft3d_ps                         10629 16.2   51.254   57.417   97.334  105.718
 density_rs2pw                      624 11.0    0.061    0.073   71.526   88.137
 xc_pw_derive                      3738 14.8    0.101    0.128   78.408   86.332
 potential_pw2rs                    623 13.8    0.076    0.090   69.388   69.630
 transfer_rs2pw                    2529 12.0    0.046    0.067   46.663   62.794
 qs_ks_update_qs_env_forces          32  6.0    0.000    0.000   61.339   61.642
 transfer_pw2rs                    2524 14.8    0.045    0.057   57.606   57.689
 mp_waitany                       81344 15.3   41.013   57.075   41.013   57.075
 xc_pw_divergence                   623 13.8    0.051    0.064   51.927   57.049
 dbcsr_multiply_generic           11389 13.9    0.615    0.693   53.690   56.622
 mp_alltoall_z22v                 10629 18.2   31.347   55.951   31.347   55.951
 transfer_rs2pw_250                 657 12.9    9.205   11.291   39.088   55.286
 xc_rho_set_and_dset_create         623 13.8    1.410    1.742   51.778   53.041
 qs_scf_new_mos                     591  9.0    0.003    0.005   50.516   51.167
 qs_scf_loop_do_ot                  591 10.0    0.004    0.005   50.513   51.164
 transfer_pw2rs_250                 655 15.6   23.931   24.659   47.222   48.074
 ot_scf_mini                        591 11.0    0.018    0.019   47.415   48.045
 mp_alltoall_d11v                  8581 15.1   17.882   36.104   17.882   36.104
 yz_to_x                           3773 17.4    5.387    6.742   21.548   35.718
 rs_gather_matrices                 623 13.8    0.118    0.187   17.295   35.592
 init_scf_loop                       35  8.0    0.001    0.001   33.290   33.292
 ot_mini                            591 12.0    0.004    0.005   31.420   32.058
 multiply_cannon                  11389 14.9    1.303    1.404   29.339   31.274
 x_to_yz                           4362 17.4    7.734    9.175   22.544   27.626
 mp_waitall_1                   1560983 18.0   18.081   27.126   18.081   27.126
 multiply_cannon_loop             11389 15.9    1.638    2.106   24.312   26.093
 init_scf_run                        33  7.0    0.001    0.002   25.802   25.805
 scf_env_initial_rho_setup           33  8.0    0.000    0.001   25.801   25.804
 wfi_extrapolate                     33  9.0    0.003    0.004   25.038   25.038
 qs_ot_get_derivative               591 13.0    0.005    0.006   23.848   24.592
 -------------------------------------------------------------------------------

 The number of warnings for this run is : 1
 
 -------------------------------------------------------------------------------
  **** **** ******  **  PROGRAM ENDED AT                 2025-01-16 07:48:18.001
 ***** ** ***  *** **   PROGRAM RAN ON                               ubuntu-GPU2
 **    ****   ******    PROGRAM RAN BY                                       zkm
 ***** **    ** ** **   PROGRAM PROCESS ID                               3481124
  **** **  *******  **  PROGRAM STOPPED IN /home/zkm/CP2K/Generate_dataset/Jenni
                                           te/Elastic/elastic_cp2k/example/epsil
                                           onyz/pos
