     138
 i =        1, E =     -1761.2518014161
 Ca        -0.7425021982        1.3822246242        3.6830928630
 Ca         2.5241030427        4.5796809398        3.2880314452
 Ca        -1.8747194507        4.8565794077        3.9516047604
 Ca         3.4557243395        0.9440336962        3.5183765372
 Si         5.9508458980        5.8083846595        1.9738781724
 Si         6.7221218562        0.6519300259        3.7987026135
 Si         5.5345752507        3.4939925150        3.9324264225
  O         4.9363566779       13.0289862335        2.6019013305
  O         0.3453426733        5.5494494439        3.5374103389
  O         5.4964725201       -0.2834724164        4.3186141968
  O         7.8711215140        0.8562033133        4.9323513973
  O         7.4160322467        0.1819522265        2.3841058996
  O         5.2479980141        4.4597673190        2.6224803604
  O         6.0358290164        2.0607532043        3.3047322202
  O         6.0087927644        5.6756191632        0.3679594962
  O         4.0253341409        3.1848974199        4.4502742688
  O         6.6359626211        4.0971173079        4.9559556927
  O         1.4679384168        2.3161346146        3.3103475086
  O        -1.3923169848        3.1915003664        2.3906874995
  O         4.0203906593        0.8411955953        1.2217032718
  O         4.4798605288       -0.9700949151        9.3140011485
  O         8.2900769731       -1.7338799048        9.4513929424
  O         6.1155317898        1.0209190882        9.3932358026
 Ca         7.6981594032        2.5984345221        6.5831745127
 Ca         4.4439247572       -0.6089892840        6.9448261199
 Ca         8.7728815162       -0.8216039190        6.4283830724
 Ca         3.4814607551        2.9814129689        6.6168397852
 Si         1.0405925083       -1.8038369218        8.3232288627
 Si         0.2859270189        3.4186392513        6.4026063075
 Si         1.4081732847        0.5152932048        6.3543709472
  O        -2.8674344131        4.6493887303        7.6883100806
  O         6.5795933269       -1.5677336212        6.6263809628
  O         1.4907598400        4.3193608435        5.7852076702
  O        -0.9214944017        3.1505333983        5.3663187164
  O        -0.2733653790        3.9929145322        7.8355288430
  O         1.5656710369       -0.3353199390        7.7624862539
  O         1.0301096601        2.0320304072        6.9184361881
  O         0.9812397509       -1.7923926802        9.9331446913
  O         2.9190493727        0.6982178492        5.7858358675
  O         0.2744086919       -0.0786326151        5.3661636866
  O         5.5028989617        1.6333280238        6.9120829347
  O        -1.7397741577        1.0166736011        7.9098215240
  O         3.4794572895        3.7973669220        8.8109695034
  O         2.5412303213        5.2087420303        1.0614108328
  O        -1.3462943745        5.5801010811        0.6988257884
  O         0.9729050340        3.0362276191        0.7135971552
 Ca         9.3143357047        3.3401686222        0.0226185044
 Ca        -3.2143007707        8.2523387388        3.6839693679
 Ca         0.0528658169       11.4507224522        3.2901403172
 Ca        -4.3455509054       11.7264143410        3.9515425542
 Ca         0.9828825902        7.8147702683        3.5130570746
 Si         3.4809003181       12.6773872456        1.9720956159
 Si         4.2493131913        7.5208683344        3.8004222655
 Si         3.0627988746       10.3636312659        3.9325157678
  O         7.4066850926        6.1601606032        2.6028041631
  O        -2.1258714403       12.4186302017        3.5389578617
  O         3.0225152995        6.5860663065        4.3202728648
  O         5.3985306398        7.7260792094        4.9334371399
  O         4.9415819881        7.0500746134        2.3857995087
  O         2.7781587700       11.3294544812        2.6223766976
  O         3.5634163491        8.9295819304        3.3058801954
  O         3.5411618488       12.5417543239        0.3657943709
  O         1.5538153341       10.0538915523        4.4502146839
  O         4.1639149519       10.9662773729        4.9566118293
  O        -1.0029335833        9.1853999909        3.3093888774
  O        -3.8629066745       10.0614896192        2.3908103023
  O         1.5506129591        7.7126554350        1.2150343718
  O         1.9802334604        5.8771365539        9.2592729546
  O         5.8173536603        5.1339759646        9.4518323954
  O         3.6372993008        7.8615208494        9.4053106796
 Ca         5.2284279965        9.4687067372        6.5840912333
 Ca         1.9869594354        6.2664746061        6.9081950225
 Ca         6.3056104807        6.0475680062        6.4301447996
 Ca         1.0103712892        9.8529353863        6.6174321572
 Si        -1.4298938687        5.0659590606        8.3226675598
 Si        -2.1842393442       10.2885714232        6.4023678870
 Si        -1.0633654390        7.3845601179        6.3546966891
  O        -5.3387558694       11.5197965596        7.6875809804
  O         4.1152317581        5.2927450951        6.6247140595
  O        -0.9800690786       11.1938721425        5.7894734406
  O        -3.3918623643       10.0204518166        5.3663450292
  O        -2.7420125166       10.8643948345        7.8362580543
  O        -0.9080120772        6.5349022861        7.7621805588
  O        -1.4407439542        8.9021963024        6.9182139762
  O        -1.4890056787        5.0766337851        9.9332371400
  O         0.4456839764        7.5699800838        5.7825053218
  O        -2.1970327693        6.7910673005        5.3658238138
  O         3.0348388401        8.5050516794        6.9148637388
  O        -4.2121672146        7.8867603231        7.9109040121
  O         1.0084262558       10.6704716942        8.8123217698
  O         0.0698144002       12.0780064538        1.0618228219
  O        -3.8174187228       12.4481341400        0.6957959774
  O        -1.4986503131        9.9048219631        0.7128586478
 Ca         6.8433220905       10.2045660451        0.0249273181
  H         3.1734214449        0.8673227797        0.5853965066
  H         4.6721990000        1.3571782157        0.6666865739
  H         5.1578704221       -0.2392531460        9.5307724847
  H         5.0002297439       -1.8418847714        9.2908903828
  H         8.1033281890       -2.5842332449        9.9872218217
  H         9.0938786069       -1.9701422350        8.8730365904
  H         5.6499927183        1.8245287130        9.9095274706
  H         6.0007981304        1.2271557265        8.4102278021
  H         3.8891852102        3.2862830235        9.6391401484
  H         4.2312752374        4.4430446552        8.6822760447
  H         1.9456205607        4.5264360399        0.6428860472
  H         2.1168969884        6.1166441358        0.9700509846
  H        -2.0548599334        5.8428024040        1.3588018235
  H        -1.0096798114        6.4499083045        0.3048578197
  H         1.0564721209        2.8042519310        1.6845260173
  H         1.4252202893        2.2038849417        0.2652369510
  H         0.7007542920        7.7373652092        0.5788857536
  H         2.1986393493        8.2222068717        0.6517964355
  H         2.6554540939        6.6058425822        9.4979741705
  H         2.5075415520        5.0085777848        9.2477875190
  H         5.6283867207        4.2849419465        9.9895608207
  H         6.6217610402        4.8967222508        8.8749714708
  H         3.1722635571        8.6698742650        9.9183104368
  H         3.5310416576        8.0791906171        8.4247528772
  H         1.4250386858       10.1567655045        9.6370127684
  H         1.7596228805       11.3152342688        8.6770820488
  H        -0.5256495638       11.3959488703        0.6429842792
  H        -0.3559286590       12.9855039593        0.9737349940
  H        -4.5261690373       12.7106341806        1.3547009992
  H        -3.4816491071       13.3178214988        0.3002561822
  H        -1.4137894186        9.6734235710        1.6836403110
  H        -1.0462368791        9.0725500098        0.2642090166
  H         0.5618127181        5.3505720987        4.4822150707
  H         1.3448796589        2.7059913530        4.2053027358
  H        -0.5366974416        3.6803454453        2.3954389998
  H         6.3968500760       -1.3329241603        5.6815090091
  H         5.6960856442        1.2386272163        6.0302882518
  H        -0.8156755428        1.3498204143        7.9425892649
  H        -1.9084731732       12.2225546770        4.4841894867
  H        -1.1255564818        9.5729310337        4.2052594480
  H        -3.0076083355       10.5509908197        2.3935942878
  H         3.9417688109        5.5197416717        5.6768046286
  H         3.2306635593        8.1250874346        6.0273985762
  H        -3.2879850992        8.2193938202        7.9472821130
     138
 i =        2, E =     -1761.2529080305
 Ca        -0.7421746931        1.3810317905        3.6813469949
 Ca         2.5261257652        4.5796965570        3.2906585829
 Ca        -1.8738233933        4.8581151213        3.9495034723
 Ca         3.4581155614        0.9435857465        3.5183778300
 Si         5.9519631510        5.8090815859        1.9749505220
 Si         6.7219120213        0.6521817918        3.7964159174
 Si         5.5347293071        3.4955949369        3.9314834863
  O         4.9347098600       13.0308071875        2.6082584317
  O         0.3517052086        5.5460149038        3.5365880304
  O         5.4934110047       -0.2805527519        4.3172522419
  O         7.8712345157        0.8549359395        4.9322335427
  O         7.4082857270        0.1771966451        2.3785203149
  O         5.2415945480        4.4651390499        2.6249642816
  O         6.0283930905        2.0592517032        3.3050493512
  O         6.0279566303        5.6765751727        0.3696008476
  O         4.0268443165        3.1863268400        4.4524132504
  O         6.6409667152        4.0949263377        4.9529716294
  O         1.4693791297        2.3134695016        3.3080402902
  O        -1.3940666805        3.1903483417        2.3885953352
  O         4.0252715228        0.8393250816        1.2219440209
  O         4.4771257497       -0.9701741698        9.3201505508
  O         8.2808035699       -1.7317537439        9.4504063453
  O         6.1082947751        1.0236927091        9.3919479644
 Ca         7.6949549208        2.5980540329        6.5827978825
 Ca         4.4469917359       -0.6090829618        6.9471729160
 Ca         8.7742905328       -0.8226253163        6.4262961685
 Ca         3.4831454263        2.9809430621        6.6173557189
 Si         1.0356582679       -1.8037594332        8.3204861573
 Si         0.2845828357        3.4171292616        6.4046278547
 Si         1.4096135892        0.5140630545        6.3553733540
  O        -2.8723956499        4.6511346055        7.6843145798
  O         6.5810933386       -1.5659827102        6.6243095829
  O         1.4862284237        4.3203379622        5.7865693078
  O        -0.9239411965        3.1493620002        5.3694741548
  O        -0.2756741387        3.9931471412        7.8370941915
  O         1.5662224111       -0.3358240760        7.7641133194
  O         1.0303543987        2.0307559941        6.9189598356
  O         0.9694200464       -1.7924697646        9.9304573132
  O         2.9204824736        0.6994293371        5.7879587350
  O         0.2743341348       -0.0765296604        5.3673682588
  O         5.5063074973        1.6336668401        6.9116880926
  O        -1.7400767215        1.0142135895        7.9056805201
  O         3.4773306835        3.7995485036        8.8145656337
  O         2.5440759351        5.2091471440        1.0589173753
  O        -1.3399238726        5.5772597014        0.7026638091
  O         0.9849427003        3.0378128126        0.7155196997
 Ca         9.3234029526        3.3406799062        0.0198461827
 Ca        -3.2136314861        8.2508494937        3.6822788911
 Ca         0.0546880194       11.4509226971        3.2930905972
 Ca        -4.3447380878       11.7281842899        3.9494874022
 Ca         0.9854328544        7.8143159639        3.5133291077
 Si         3.4827447995       12.6780744360        1.9725948945
 Si         4.2484380119        7.5216461669        3.7986962339
 Si         3.0628082594       10.3660218097        3.9316898336
  O         7.4047169166        6.1616648648        2.6089794742
  O        -2.1196120498       12.4150026729        3.5383712062
  O         3.0191306473        6.5888499848        4.3191157371
  O         5.3993955596        7.7240283623        4.9327822762
  O         4.9327738465        7.0450624252        2.3809662572
  O         2.7718304763       11.3351756851        2.6245504235
  O         3.5550644849        8.9284361968        3.3065037915
  O         3.5621261757       12.5421334358        0.3669762962
  O         1.5552331277       10.0555769497        4.4526774241
  O         4.1693971933       10.9640992096        4.9536406047
  O        -1.0017184879        9.1825491545        3.3070588095
  O        -3.8643764862       10.0597325406        2.3891238364
  O         1.5546558724        7.7095587929        1.2153745837
  O         1.9756239146        5.8754379579        9.2623658892
  O         5.8080258034        5.1366230301        9.4506363977
  O         3.6276764589        7.8653082820        9.4034516807
 Ca         5.2253892092        9.4683065316        6.5838414545
 Ca         1.9897832885        6.2659789785        6.9100038942
 Ca         6.3066339432        6.0468048214        6.4281248688
 Ca         1.0120387391        9.8536198479        6.6179381637
 Si        -1.4348575777        5.0661377399        8.3194033870
 Si        -2.1853487738       10.2876931844        6.4049106372
 Si        -1.0614278967        7.3837708750        6.3553046856
  O        -5.3433111340       11.5208039236        7.6837587170
  O         4.1160412641        5.2934502812        6.6225211709
  O        -0.9854827075       11.1955798626        5.7897720229
  O        -3.3935239599       10.0190680411        5.3697435608
  O        -2.7435711604       10.8652108827        7.8384682616
  O        -0.9076782358        6.5348851003        7.7636846698
  O        -1.4407553792        8.9010282244        6.9186167580
  O        -1.5016529602        5.0768748664        9.9300163609
  O         0.4483834470        7.5701723931        5.7855256141
  O        -2.1970329522        6.7932331715        5.3672254313
  O         3.0369168378        8.5047099106        6.9142420838
  O        -4.2118387757        7.8835139074        7.9064826380
  O         1.0064239805       10.6717018077        8.8157209464
  O         0.0727762411       12.0783638110        1.0595956872
  O        -3.8117801581       12.4454595771        0.6997160547
  O        -1.4855704282        9.9072786149        0.7152161557
 Ca         6.8514066264       10.2058343728        0.0217484680
  H         3.1775643828        0.8706474923        0.5818674309
  H         4.6798584951        1.3563446400        0.6722084752
  H         5.1487905177       -0.2335180751        9.5322595224
  H         4.9935665395       -1.8443591806        9.2913261780
  H         8.1012774131       -2.5829149526        9.9850970073
  H         9.0883615426       -1.9740539422        8.8782880841
  H         5.6370545630        1.8230918366        9.9039725017
  H         5.9919706779        1.2320587547        8.4093354116
  H         3.8865157487        3.2805991579        9.6437393449
  H         4.2259517488        4.4465655651        8.6741074928
  H         1.9435178124        4.5324366832        0.6409309016
  H         2.1144761924        6.1150399390        0.9695168253
  H        -2.0542258237        5.8466788041        1.3544522161
  H        -1.0102613131        6.4487238678        0.3070868526
  H         1.0587306285        2.8004332207        1.6865943253
  H         1.4307734038        2.2040736368        0.2657254276
  H         0.7036895681        7.7404229173        0.5761746784
  H         2.2060248699        8.2207298527        0.6580715996
  H         2.6444812854        6.6084218344        9.4999453600
  H         2.4990448363        5.0042216994        9.2481013702
  H         5.6268744830        4.2865324697        9.9873551213
  H         6.6160530727        4.8925686077        8.8799964591
  H         3.1603766272        8.6690647612        9.9135254674
  H         3.5238085649        8.0840924625        8.4227057261
  H         1.4224853378       10.1510420596        9.6419355651
  H         1.7543528281       11.3180933194        8.6700090859
  H        -0.5276354863       11.4020584513        0.6410319568
  H        -0.3581007584       12.9839411642        0.9726372294
  H        -4.5256391494       12.7150750126        1.3513354175
  H        -3.4819179476       13.3169761134        0.3041367867
  H        -1.4117127285        9.6697735990        1.6861548445
  H        -1.0404497785        9.0732244285        0.2650687377
  H         0.5631867973        5.3491186625        4.4829364064
  H         1.3450005796        2.7054683581        4.2020812412
  H        -0.5391305572        3.6805279491        2.3993736008
  H         6.3978221542       -1.3314423916        5.6798901725
  H         5.6954570463        1.2373453017        6.0299564336
  H        -0.8174288444        1.3484429381        7.9469674312
  H        -1.9069929555       12.2212087796        4.4851783520
  H        -1.1251193436        9.5724893213        4.2019858506
  H        -3.0100695233       10.5510618030        2.3983696995
  H         3.9428304251        5.5206800603        5.6750303883
  H         3.2296239532        8.1236530631        6.0268321241
  H        -3.2896008436        8.2182697375        7.9513752967
     138
 i =        3, E =     -1761.2532743735
 Ca        -0.7407368849        1.3816659540        3.6825140102
 Ca         2.5286017339        4.5801716016        3.2899837893
 Ca        -1.8715704280        4.8589873544        3.9484675764
 Ca         3.4610323907        0.9424117071        3.5189536948
 Si         5.9521132650        5.8105229753        1.9754190518
 Si         6.7182555298        0.6511536973        3.7931306803
 Si         5.5331825107        3.4956658436        3.9304183766
  O         4.9331356884       13.0325911185        2.6122862218
  O         0.3559378975        5.5455078911        3.5366728021
  O         5.4905974355       -0.2813051934        4.3187993422
  O         7.8691015702        0.8551105936        4.9283582137
  O         7.4021528438        0.1765234948        2.3729982146
  O         5.2387707489        4.4673620537        2.6250772088
  O         6.0233971437        2.0586231985        3.3034952879
  O         6.0428714410        5.6768878220        0.3704191551
  O         4.0265134245        3.1883352119        4.4553117098
  O         6.6428031091        4.0939623178        4.9489474242
  O         1.4720818663        2.3103438994        3.3066676360
  O        -1.3948056989        3.1894853190        2.3878672978
  O         4.0250946060        0.8390674343        1.2215737266
  O         4.4725724011       -0.9699229433        9.3204460696
  O         8.2768852010       -1.7315201453        9.4497743600
  O         6.1075480572        1.0222798275        9.3899561114
 Ca         7.6931313536        2.5975779533        6.5822549447
 Ca         4.4484305946       -0.6085113746        6.9492662736
 Ca         8.7759489446       -0.8223130439        6.4232573966
 Ca         3.4833823742        2.9796893097        6.6174437132
 Si         1.0320551145       -1.8037031634        8.3186642694
 Si         0.2814011496        3.4166894983        6.4051199556
 Si         1.4084122082        0.5152417461        6.3562063612
  O        -2.8756087776        4.6499609470        7.6817793899
  O         6.5798345729       -1.5655305405        6.6227738157
  O         1.4820000222        4.3219357922        5.7893819471
  O        -0.9272517300        3.1484687286        5.3700060908
  O        -0.2805198973        3.9911550336        7.8381231185
  O         1.5658268885       -0.3365953743        7.7636889509
  O         1.0301016316        2.0322687613        6.9203291384
  O         0.9653354651       -1.7900567965        9.9285538633
  O         2.9192442563        0.6976034332        5.7883396989
  O         0.2752608991       -0.0777774490        5.3674817756
  O         5.5046073840        1.6340182573        6.9099711960
  O        -1.7394995570        1.0148362740        7.9074536058
  O         3.4733910511        3.7958467403        8.8153109886
  O         2.5428730812        5.2111930185        1.0580836463
  O        -1.3374761831        5.5782116990        0.7053336433
  O         0.9852858275        3.0372702821        0.7175490854
 Ca         9.3223843680        3.3429759474        0.0173052406
 Ca        -3.2119302030        8.2511383671        3.6835908902
 Ca         0.0566147355       11.4516666147        3.2921958966
 Ca        -4.3421987922       11.7290620811        3.9485936421
 Ca         0.9885632022        7.8130357162        3.5141535237
 Si         3.4831629652       12.6798662518        1.9730691934
 Si         4.2447266559        7.5205779558        3.7958972157
 Si         3.0612722955       10.3662373907        3.9305471973
  O         7.4029912616        6.1633491469        2.6124983708
  O        -2.1155475444       12.4143952419        3.5385423092
  O         3.0163188173        6.5880449794        4.3211192650
  O         5.3969817024        7.7247608656        4.9294867174
  O         4.9276902510        7.0447774425        2.3764942386
  O         2.7688664371       11.3379854122        2.6249280675
  O         3.5503089386        8.9278083875        3.3051326093
  O         3.5759135246       12.5433566096        0.3678643819
  O         1.5546665960       10.0586222491        4.4556350297
  O         4.1713303243       10.9632783183        4.9495093707
  O        -0.9990087819        9.1791445729        3.3058358817
  O        -3.8650523390       10.0586978225        2.3883368033
  O         1.5536628992        7.7092201172        1.2154709164
  O         1.9711334170        5.8740944551        9.2629762665
  O         5.8053563599        5.1370595990        9.4504570934
  O         3.6205969879        7.8650161540        9.4013104417
 Ca         5.2235521392        9.4675478971        6.5831666660
 Ca         1.9911579552        6.2662302548        6.9115717571
 Ca         6.3082049607        6.0468494714        6.4249826538
 Ca         1.0125424683        9.8525765231        6.6183444184
 Si        -1.4391090343        5.0663888931        8.3174688092
 Si        -2.1885040165       10.2873072543        6.4054183656
 Si        -1.0628738293        7.3849484598        6.3563984599
  O        -5.3458937313       11.5196095068        7.6812889974
  O         4.1153875694        5.2927860692        6.6206956344
  O        -0.9906161462       11.1982812714        5.7928928591
  O        -3.3967281598       10.0182496661        5.3703815875
  O        -2.7473100477       10.8632975927        7.8397973390
  O        -0.9080109512        6.5342507159        7.7636342161
  O        -1.4399740884        8.9030303539        6.9196184751
  O        -1.5064419694        5.0794026010        9.9279632754
  O         0.4464737891        7.5694926262        5.7855326284
  O        -2.1958303756        6.7921657942        5.3668339054
  O         3.0353491267        8.5055114397        6.9118866395
  O        -4.2113927854        7.8848288595        7.9082365670
  O         1.0023414229       10.6684401384        8.8165488265
  O         0.0716784892       12.0807036241        1.0586394000
  O        -3.8086180750       12.4466367209        0.7039009860
  O        -1.4855835875        9.9066726221        0.7174259644
 Ca         6.8485127166       10.2087731972        0.0185362954
  H         3.1815047307        0.8737845082        0.5791216460
  H         4.6862408681        1.3543615054        0.6774147268
  H         5.1427753219       -0.2314194253        9.5332111672
  H         4.9902194598       -1.8437870051        9.2942442097
  H         8.0961114987       -2.5816326909        9.9861830643
  H         9.0842506018       -1.9744546108        8.8787905846
  H         5.6327574484        1.8201315422        9.9023441639
  H         5.9856150945        1.2340724104        8.4085765626
  H         3.8888307762        3.2828706176        9.6451987829
  H         4.2194179932        4.4460575794        8.6737897495
  H         1.9436782780        4.5337484123        0.6401314071
  H         2.1143898084        6.1178499425        0.9709310625
  H        -2.0560504668        5.8468178212        1.3518249115
  H        -1.0087730964        6.4490551872        0.3062100772
  H         1.0634384220        2.7978871961        1.6885581596
  H         1.4356526917        2.2046521654        0.2667847259
  H         0.7070143100        7.7431975492        0.5737830677
  H         2.2115668133        8.2179629297        0.6633699102
  H         2.6367663342        6.6087457842        9.5012133533
  H         2.4937706225        5.0019872831        9.2500127796
  H         5.6215152612        4.2882285622        9.9885982866
  H         6.6122648665        4.8923408056        8.8797005775
  H         3.1552927899        8.6688856052        9.9114502293
  H         3.5172121102        8.0872202490        8.4212970144
  H         1.4239396089       10.1526843814        9.6428343541
  H         1.7484515033       11.3171822376        8.6703804248
  H        -0.5272338815       11.4031986017        0.6404367775
  H        -0.3576856066       12.9871264825        0.9736251213
  H        -4.5276457469       12.7155731324        1.3495663004
  H        -3.4800743671       13.3175040829        0.3046520181
  H        -1.4070114709        9.6675475440        1.6884137240
  H        -1.0351750724        9.0742084158        0.2662249016
  H         0.5656196468        5.3468202634        4.4831465761
  H         1.3445340268        2.7045949822        4.1992649549
  H        -0.5405449614        3.6807234055        2.4027875580
  H         6.3987502945       -1.3296944581        5.6783888847
  H         5.6946236771        1.2359070662        6.0291370982
  H        -0.8171250744        1.3477815653        7.9492596221
  H        -1.9046003171       12.2189738801        4.4855598457
  H        -1.1255264382        9.5716566016        4.1991924748
  H        -3.0113922003       10.5510238772        2.4025750566
  H         3.9437822790        5.5215153066        5.6734238131
  H         3.2280966847        8.1220337846        6.0254965993
  H        -3.2891278480        8.2175695965        7.9533293038
     138
 i =        4, E =     -1761.2535336242
 Ca        -0.7399005456        1.3830884350        3.6834444836
 Ca         2.5297110399        4.5799104948        3.2876403492
 Ca        -1.8695894901        4.8599180095        3.9476421971
 Ca         3.4617417502        0.9405442600        3.5207390706
 Si         5.9525583577        5.8109861788        1.9756099048
 Si         6.7166138572        0.6512305282        3.7899417835
 Si         5.5324785135        3.4955626682        3.9295357855
  O         4.9324651340       13.0334468625        2.6124728912
  O         0.3586143228        5.5462345663        3.5371931017
  O         5.4901467698       -0.2817994053        4.3183623239
  O         7.8673983718        0.8545092223        4.9256261558
  O         7.3989411020        0.1783988096        2.3678644987
  O         5.2375496823        4.4673177223        2.6238199646
  O         6.0198824209        2.0582961373        3.3013851854
  O         6.0442132030        5.6765984075        0.3706363674
  O         4.0260819380        3.1893916119        4.4552892434
  O         6.6419438244        4.0939652205        4.9477825365
  O         1.4763278240        2.3076817667        3.3061243128
  O        -1.3952244491        3.1894051339        2.3897233125
  O         4.0236499230        0.8397049153        1.2213077989
  O         4.4684185567       -0.9703350610        9.3207382382
  O         8.2753435631       -1.7307846826        9.4499928322
  O         6.1064172035        1.0209545016        9.3883226480
 Ca         7.6917137213        2.5969700770        6.5812609780
 Ca         4.4473688484       -0.6086364452        6.9494955363
 Ca         8.7764504297       -0.8220632315        6.4204804435
 Ca         3.4815662984        2.9786880237        6.6170391543
 Si         1.0285527781       -1.8030929515        8.3182244807
 Si         0.2786722107        3.4166751647        6.4052076310
 Si         1.4085199874        0.5148931114        6.3556674060
  O        -2.8785957040        4.6503781497        7.6799703375
  O         6.5794679213       -1.5650368763        6.6223324942
  O         1.4771205543        4.3248869394        5.7903078337
  O        -0.9304924088        3.1480150555        5.3703734360
  O        -0.2867414543        3.9889509156        7.8381021835
  O         1.5644733549       -0.3367634547        7.7634574876
  O         1.0290478898        2.0322270985        6.9188836937
  O         0.9643506541       -1.7876001799        9.9279653997
  O         2.9189914345        0.6997960477        5.7879842829
  O         0.2737654637       -0.0765986546        5.3678442033
  O         5.5021916900        1.6347526838        6.9082829117
  O        -1.7386433340        1.0149342924        7.9064278340
  O         3.4723681624        3.7943967444        8.8173512387
  O         2.5433553477        5.2122444946        1.0586184878