 DBCSR| CPU Multiplication driver                                           XSMM (U)
 DBCSR| Multrec recursion limit                                              512 (U)
 DBCSR| Multiplication stack size                                           1000 (D)
 DBCSR| Maximum elements for images                                    UNLIMITED (U)
 DBCSR| Multiplicative factor virtual images                                   1 (U)
 DBCSR| Use multiplication densification                                       T (D)
 DBCSR| Multiplication size stacks                                             3 (U)
 DBCSR| Use memory pool for CPU allocation                                     F (U)
 DBCSR| Number of 3D layers                                               SINGLE (U)
 DBCSR| Use MPI memory allocation                                              F (U)
 DBCSR| Use RMA algorithm                                                      F (U)
 DBCSR| Use Communication thread                                               T (U)
 DBCSR| Communication thread load                                             83 (D)
 DBCSR| MPI: My process id                                                     0
 DBCSR| MPI: Number of processes                                              52
 DBCSR| OMP: Current number of threads                                         2
 DBCSR| OMP: Max number of threads                                             2
 DBCSR| Split modifier for TAS multiplication algorithm                  1.0E+00 (U)


  **** **** ******  **  PROGRAM STARTED AT               2025-01-16 08:28:10.458
 ***** ** ***  *** **   PROGRAM STARTED ON                           ubuntu-GPU2
 **    ****   ******    PROGRAM STARTED BY                                   zkm
 ***** **    ** ** **   PROGRAM PROCESS ID                               3482024
  **** **  *******  **  PROGRAM STARTED IN /home/zkm/CP2K/Generate_dataset/Jenni
                                           te/Elastic/elastic_cp2k/example/epsil
                                           onxz/neg

 CP2K| version string:                                       CP2K version 2024.3
 CP2K| source code revision number:                                  git:6712648
 CP2K| cp2kflags: omp libint fftw3 libxc libgrpp pexsi elpa parallel scalapack m
 CP2K|            pi_f08 cosma quip xsmm plumed2 spglib mkl sirius libvori libbq
 CP2K|            qb libvdwxc hdf5
 CP2K| is freely available from                            https://www.cp2k.org/
 CP2K| Program compiled at            2024年 10月 05日 星期六 13:00:57 CST
 CP2K| Program compiled on                                           ubuntu-GPU2
 CP2K| Program compiled for                                                local
 CP2K| Data directory path                       /home/zkm/CP2K/cp2k-2024.3/data
 CP2K| Input file name                                                geoopt.inp

 GLOBAL| Force Environment number                                              1
 GLOBAL| Basis set file name                                        BASIS_MOLOPT
 GLOBAL| Potential file name                                           POTENTIAL
 GLOBAL| MM Potential file name                                     MM_POTENTIAL
 GLOBAL| Coordinate file name                                          coord.xyz
 GLOBAL| Method name                                                        CP2K
 GLOBAL| Project name                                                     geoopt
 GLOBAL| Run type                                                        GEO_OPT
 GLOBAL| FFT library                                                       FFTW3
 GLOBAL| Diagonalization library                                            ELPA
 GLOBAL| DGEMM library                                                      BLAS
 GLOBAL| Minimum number of eigenvectors for ELPA usage                        16
 GLOBAL| Orthonormality check for eigenvectors                          DISABLED
 GLOBAL| Matrix multiplication library                                     COSMA
 GLOBAL| All-to-all communication in single precision                          F
 GLOBAL| FFTs using library dependent lengths                                  F
 GLOBAL| Grid backend                                                       AUTO
 GLOBAL| Global print level                                                  LOW
 GLOBAL| MPI I/O enabled                                                       T
 GLOBAL| Total number of message passing processes                            52
 GLOBAL| Number of threads for this process                                    2
 GLOBAL| This output is from process                                           0
 GLOBAL| Stack size for threads created by OpenMP (OMP_STACKSIZE)        default
 GLOBAL| CPU model name            Intel(R) Xeon(R) Platinum 8179M CPU @ 2.40GHz
 GLOBAL| CPUID                                                              1003

 MEMORY| system memory details [Kb]
 MEMORY|                        rank 0           min           max       average
 MEMORY| MemTotal            527974664     527974664     527974664     527974664
 MEMORY| MemFree             104442836     104442836     104442836     104442836
 MEMORY| Buffers               6978732       6978732       6978732       6978732
 MEMORY| Cached              241762256     241762256     241762256     241762256
 MEMORY| Slab                 39981416      39981416      39981416      39981416
 MEMORY| SReclaimable         37153440      37153440      37153440      37153440
 MEMORY| MemLikelyFree       390337264     390337264     390337264     390337264


 GENERATE|  Preliminary Number of Bonds generated:                             0
 GENERATE|  Achieved consistency in connectivity generation.

 *******************************************************************************
 *******************************************************************************
 **                                                                           **
 **     #####                         ##              ##                      **
 **    ##   ##            ##          ##              ##                      **
 **   ##     ##                       ##            ######                    **
 **   ##     ##  ##   ##  ##   #####  ##  ##   ####   ##    #####    #####    **
 **   ##     ##  ##   ##  ##  ##      ## ##   ##      ##   ##   ##  ##   ##   **
 **   ##  ## ##  ##   ##  ##  ##      ####     ###    ##   ######   ######    **
 **    ##  ###   ##   ##  ##  ##      ## ##      ##   ##   ##       ##        **
 **     #######   #####   ##   #####  ##  ##  ####    ##    #####   ##        **
 **           ##                                                    ##        **
 **                                                                           **
 **                                                ... make the atoms dance   **
 **                                                                           **
 **            Copyright (C) by CP2K developers group (2000-2024)             **
 **                      J. Chem. Phys. 152, 194103 (2020)                    **
 **                                                                           **
 *******************************************************************************


 TOTAL NUMBERS AND MAXIMUM NUMBERS

  Total number of            - Atomic kinds:                                   4
                             - Atoms:                                        138
                             - Shell sets:                                   138
                             - Shells:                                       620
                             - Primitive Cartesian functions:                696
                             - Cartesian basis functions:                   1554
                             - Spherical basis functions:                   1460

  Maximum angular momentum of- Orbital basis functions:                        2
                             - Local part of the GTH pseudopotential:          2
                             - Non-local part of the GTH pseudopotential:      3


 SCF PARAMETERS         Density guess:                                    ATOMIC
                        --------------------------------------------------------
                        max_scf:                                              25
                        max_scf_history:                                       0
                        max_diis:                                              4
                        --------------------------------------------------------
                        eps_scf:                                        1.00E-07
                        eps_scf_history:                                0.00E+00
                        eps_diis:                                       1.00E-01
                        eps_eigval:                                     1.00E-05
                        --------------------------------------------------------
                        level_shift [a.u.]:                             0.000000
                        --------------------------------------------------------
                        Outer loop SCF in use 
                        No variables optimised in outer loop
                        eps_scf                                         1.00E-07
                        max_scf                                               20
                        No outer loop optimization
                        step_size                                       5.00E-01

 BFGS| Use rational function optimization for step estimation:                NO
 BFGS| Use model Hessian for initial guess:                                  YES
 BFGS| Restart Hessian:                                                       NO
 BFGS| Trust radius:                                                       0.378

 *******************************************************************************
 ***                     STARTING GEOMETRY OPTIMIZATION                      ***
 ***                                   BFGS                                  ***
 *******************************************************************************

 Number of electrons:                                                        656
 Number of occupied orbitals:                                                328
 Number of molecular orbitals:                                               328

 Number of orbital functions:                                               1460
 Number of independent orbital functions:                                   1460

 Extrapolation method: initial_guess


 SCF WAVEFUNCTION OPTIMIZATION

  ----------------------------------- OT ---------------------------------------
  Minimizer      : DIIS                : direct inversion
                                         in the iterative subspace
                                         using   7 DIIS vectors
                                         safer DIIS on
  Preconditioner : FULL_KINETIC        : inversion of T + eS
  Precond_solver : DEFAULT
  stepsize       :    0.15000000                  energy_gap     :    0.20000000
  eps_taylor     :   0.10000E-15                  max_taylor     :             4
  ----------------------------------- OT ---------------------------------------

  Step     Update method      Time    Convergence         Total energy    Change
  ------------------------------------------------------------------------------
     1 OT DIIS     0.15E+00    1.0     0.01899086     -1710.3115134486 -1.71E+03
     2 OT DIIS     0.15E+00    1.7     0.01128328     -1728.7999686105 -1.85E+01
     3 OT DIIS     0.15E+00    2.0     0.00838437     -1737.9123667563 -9.11E+00
     4 OT DIIS     0.15E+00    1.7     0.00559413     -1746.5514807562 -8.64E+00
     5 OT DIIS     0.15E+00    1.8     0.00415207     -1751.0300269915 -4.48E+00
     6 OT DIIS     0.15E+00    1.7     0.00319987     -1753.9158122338 -2.89E+00
     7 OT DIIS     0.15E+00    2.0     0.00244474     -1756.0628510349 -2.15E+00
     8 OT DIIS     0.15E+00    1.7     0.00192087     -1757.4647634171 -1.40E+00
     9 OT DIIS     0.15E+00    2.6     0.00153713     -1758.3969938372 -9.32E-01
    10 OT DIIS     0.15E+00    2.0     0.00130861     -1758.9981837670 -6.01E-01
    11 OT DIIS     0.15E+00    1.7     0.00111863     -1759.4064697865 -4.08E-01
    12 OT DIIS     0.15E+00    1.7     0.00098686     -1759.7626452714 -3.56E-01
    13 OT DIIS     0.15E+00    1.8     0.00083387     -1760.0232845461 -2.61E-01
    14 OT DIIS     0.15E+00    2.1     0.00070976     -1760.2367340891 -2.13E-01
    15 OT DIIS     0.15E+00    1.7     0.00058065     -1760.4235487966 -1.87E-01
    16 OT DIIS     0.15E+00    1.7     0.00050187     -1760.5264611889 -1.03E-01
    17 OT DIIS     0.15E+00    1.8     0.00043756     -1760.6162379319 -8.98E-02
    18 OT DIIS     0.15E+00    2.0     0.00040992     -1760.6683064160 -5.21E-02
    19 OT DIIS     0.15E+00    1.7     0.00040119     -1760.7057486757 -3.74E-02
    20 OT DIIS     0.15E+00    1.7     0.00039630     -1760.7216461630 -1.59E-02
    21 OT SD       0.15E+00    1.8     0.00039994     -1760.7304732263 -8.83E-03
    22 OT SD       0.15E+00    2.0     0.00040259     -1760.7419977276 -1.15E-02
    23 OT SD       0.15E+00    1.7     0.00040564     -1760.7536824446 -1.17E-02
    24 OT SD       0.15E+00    1.7     0.00040884     -1760.7655474222 -1.19E-02
    25 OT SD       0.15E+00    1.7     0.00041202     -1760.7775999315 -1.21E-02

  Leaving inner SCF loop after reaching    25 steps.


  Electronic density on regular grids:       -655.9999999993        0.0000000007
  Core density on regular grids:              655.9999999997       -0.0000000003
  Total charge density on r-space grids:        0.0000000004
  Total charge density g-space grids:           0.0000000004

  Overlap energy of the core charge distribution:               0.00000060301891
  Self energy of the core charge distribution:              -4144.80997841715816
  Core Hamiltonian energy:                                   1117.15349937491897
  Hartree energy:                                            1614.05714009189091
  Exchange-correlation energy:                               -346.68326636567883
  Dispersion energy:                                           -0.49499521846688

  Total energy:                                             -1760.77759993147515

  outer SCF iter =    1 RMS gradient =   0.41E-03 energy =      -1760.7775999315

  ----------------------------------- OT ---------------------------------------
  Minimizer      : DIIS                : direct inversion
                                         in the iterative subspace
                                         using   7 DIIS vectors
                                         safer DIIS on
  Preconditioner : FULL_KINETIC        : inversion of T + eS
  Precond_solver : DEFAULT
  stepsize       :    0.15000000                  energy_gap     :    0.20000000
  eps_taylor     :   0.10000E-15                  max_taylor     :             4
  ----------------------------------- OT ---------------------------------------

  Step     Update method      Time    Convergence         Total energy    Change
  ------------------------------------------------------------------------------
     1 OT DIIS     0.15E+00    3.7     0.00070288     -1760.7898382234 -1.22E-02
     2 OT DIIS     0.15E+00    1.7     0.00063160     -1760.8230812534 -3.32E-02
     3 OT DIIS     0.15E+00    1.7     0.00057668     -1760.8781938521 -5.51E-02
     4 OT DIIS     0.15E+00    1.7     0.00055101     -1760.9286213523 -5.04E-02
     5 OT DIIS     0.15E+00    2.0     0.00052220     -1760.9883800451 -5.98E-02
     6 OT DIIS     0.15E+00    1.7     0.00045703     -1761.0780890678 -8.97E-02
     7 OT DIIS     0.15E+00    1.7     0.00032929     -1761.1731099960 -9.50E-02
     8 OT DIIS     0.15E+00    1.7     0.00022596     -1761.2159412160 -4.28E-02
     9 OT DIIS     0.15E+00    2.8     0.00015229     -1761.2348099998 -1.89E-02
    10 OT DIIS     0.15E+00    1.7     0.00010992     -1761.2398051799 -5.00E-03
    11 OT DIIS     0.15E+00    1.7     0.00007836     -1761.2434864532 -3.68E-03
    12 OT DIIS     0.15E+00    2.0     0.00006742     -1761.2442476371 -7.61E-04
    13 OT DIIS     0.15E+00    1.8     0.00004704     -1761.2453508583 -1.10E-03
    14 OT DIIS     0.15E+00    1.7     0.00003659     -1761.2458702199 -5.19E-04
    15 OT DIIS     0.15E+00    1.7     0.00002760     -1761.2462385509 -3.68E-04
    16 OT DIIS     0.15E+00    2.0     0.00002100     -1761.2464408584 -2.02E-04
    17 OT DIIS     0.15E+00    1.7     0.00001611     -1761.2465558864 -1.15E-04
    18 OT DIIS     0.15E+00    1.7     0.00001245     -1761.2466183827 -6.25E-05
    19 OT DIIS     0.15E+00    1.7     0.00000946     -1761.2466595008 -4.11E-05
    20 OT DIIS     0.15E+00    2.0     0.00000746     -1761.2466804880 -2.10E-05
    21 OT DIIS     0.15E+00    1.7     0.00000568     -1761.2466929940 -1.25E-05
    22 OT DIIS     0.15E+00    1.8     0.00000458     -1761.2466978465 -4.85E-06
    23 OT DIIS     0.15E+00    1.7     0.00000359     -1761.2467017854 -3.94E-06
    24 OT DIIS     0.15E+00    2.0     0.00000288     -1761.2467046218 -2.84E-06
    25 OT DIIS     0.15E+00    1.7     0.00000219     -1761.2467069864 -2.36E-06

  Leaving inner SCF loop after reaching    25 steps.


  Electronic density on regular grids:       -655.9999999993        0.0000000007
  Core density on regular grids:              655.9999999997       -0.0000000003
  Total charge density on r-space grids:        0.0000000003
  Total charge density g-space grids:           0.0000000003

  Overlap energy of the core charge distribution:               0.00000060301891
  Self energy of the core charge distribution:              -4144.80997841715816
  Core Hamiltonian energy:                                   1117.32156675997976
  Hartree energy:                                            1613.66349711511498
  Exchange-correlation energy:                               -346.92679782892384
  Dispersion energy:                                           -0.49499521846688

  Total energy:                                             -1761.24670698643536

  outer SCF iter =    2 RMS gradient =   0.22E-05 energy =      -1761.2467069864

  ----------------------------------- OT ---------------------------------------
  Minimizer      : DIIS                : direct inversion
                                         in the iterative subspace
                                         using   7 DIIS vectors
                                         safer DIIS on
  Preconditioner : FULL_KINETIC        : inversion of T + eS
  Precond_solver : DEFAULT
  stepsize       :    0.15000000                  energy_gap     :    0.20000000
  eps_taylor     :   0.10000E-15                  max_taylor     :             4
  ----------------------------------- OT ---------------------------------------

  Step     Update method      Time    Convergence         Total energy    Change
  ------------------------------------------------------------------------------
     1 OT DIIS     0.15E+00    3.5     0.00000272     -1761.2467083222 -1.34E-06
     2 OT DIIS     0.15E+00    1.7     0.00000224     -1761.2467088002 -4.78E-07
     3 OT DIIS     0.15E+00    1.9     0.00000157     -1761.2467095461 -7.46E-07
     4 OT DIIS     0.15E+00    1.7     0.00000117     -1761.2467099053 -3.59E-07
     5 OT DIIS     0.15E+00    1.7     0.00000063     -1761.2467102858 -3.80E-07
     6 OT DIIS     0.15E+00    1.7     0.00000050     -1761.2467103450 -5.92E-08
     7 OT DIIS     0.15E+00    1.9     0.00000030     -1761.2467104123 -6.72E-08
     8 OT DIIS     0.15E+00    1.7     0.00000021     -1761.2467104315 -1.93E-08
     9 OT DIIS     0.15E+00    2.6     0.00000014     -1761.2467104406 -9.08E-09
    10 OT DIIS     0.15E+00    1.9     0.00000009     -1761.2467104450 -4.35E-09

  *** SCF run converged in    10 steps ***


  Electronic density on regular grids:       -655.9999999993        0.0000000007
  Core density on regular grids:              655.9999999997       -0.0000000003
  Total charge density on r-space grids:        0.0000000003
  Total charge density g-space grids:           0.0000000003

  Overlap energy of the core charge distribution:               0.00000060301891
  Self energy of the core charge distribution:              -4144.80997841715816
  Core Hamiltonian energy:                                   1117.32213090310825
  Hartree energy:                                            1613.66297783029086
  Exchange-correlation energy:                               -346.92684614576427
  Dispersion energy:                                           -0.49499521846688

  Total energy:                                             -1761.24671044497154

  outer SCF iter =    3 RMS gradient =   0.92E-07 energy =      -1761.2467104450
  outer SCF loop converged in   3 iterations or   60 steps


 ENERGY| Total FORCE_EVAL ( QS ) energy [a.u.]:            -1761.246710446752104

 ATOMIC FORCES in [a.u.]

 # Atom   Kind   Element          X              Y              Z
      1      1      Ca         -0.00001262     0.00007367     0.00047579
      2      1      Ca          0.00016381     0.00028246    -0.00029647
      3      1      Ca          0.00008858     0.00009860     0.00055429
      4      1      Ca          0.00057094     0.00003843    -0.00112600
      5      2      Si         -0.00141773    -0.00001932     0.00034893
      6      2      Si         -0.00067317     0.00011700    -0.00037632
      7      2      Si         -0.00026729    -0.00038029    -0.00027648
      8      3      O          -0.00227072    -0.00007504    -0.00078362
      9      3      O           0.00119992    -0.00115958     0.00010116
     10      3      O          -0.00223121    -0.00031233     0.00028139
     11      3      O           0.00295858    -0.00007723    -0.00015364
     12      3      O           0.00001470     0.00017541    -0.00074939
     13      3      O          -0.00024005     0.00124762     0.00040920
     14      3      O          -0.00156380     0.00067221    -0.00031566
     15      3      O           0.01052008    -0.00547181     0.00173896
     16      3      O           0.00061288    -0.00053168     0.00007417
     17      3      O           0.00216793     0.00022643     0.00046710
     18      3      O           0.00007080    -0.00095905    -0.00058748
     19      3      O          -0.00116863    -0.00026850    -0.00102398
     20      3      O           0.00986953     0.00091404     0.00610911
     21      3      O          -0.00060132     0.00271978    -0.00004900
     22      3      O          -0.00178927    -0.00345822     0.00223458
     23      3      O          -0.00955241     0.00656387     0.00107684
     24      1      Ca          0.00056715     0.00005634    -0.00060105
     25      1      Ca         -0.00035601    -0.00075219     0.00012194
     26      1      Ca          0.00015657     0.00019335    -0.00020555
     27      1      Ca         -0.00046617     0.00052460     0.00102466
     28      2      Si          0.00108615     0.00039078     0.00009891
     29      2      Si          0.00042557    -0.00013300     0.00039109
     30      2      Si          0.00012132     0.00021330     0.00043944
     31      3      O          -0.00081157    -0.00035193     0.00054092
     32      3      O           0.00109977     0.00066624    -0.00002905
     33      3      O          -0.00154030    -0.00054063    -0.00018863
     34      3      O          -0.00049884     0.00013329    -0.00004927
     35      3      O          -0.00017882     0.00021851     0.00005860
     36      3      O          -0.00080158    -0.00062096    -0.00025074
     37      3      O           0.00062218    -0.00009291    -0.00030954
     38      3      O          -0.01480965     0.00137231    -0.00399277
     39      3      O           0.00241547    -0.00011213     0.00004966
     40      3      O           0.00281352    -0.00025977    -0.00028396
     41      3      O           0.00086096    -0.00026051     0.00129786
     42      3      O          -0.00251819    -0.00021677     0.00059986
     43      3      O          -0.00531887     0.00559353    -0.00960249
     44      3      O          -0.00236794    -0.00116996     0.00039109
     45      3      O          -0.00133116     0.00374456    -0.00153788
     46      3      O           0.00021839    -0.00569328    -0.00244696
     47      1      Ca          0.01112014    -0.00175453     0.00176838
     48      1      Ca          0.00009632    -0.00008186     0.00046404
     49      1      Ca          0.00001387     0.00018334    -0.00026837
     50      1      Ca          0.00019556    -0.00002442     0.00061238
     51      1      Ca          0.00051167     0.00004797    -0.00101032
     52      2      Si         -0.00152697     0.00021208     0.00032996
     53      2      Si         -0.00056593    -0.00009581    -0.00034649
     54      2      Si         -0.00029205    -0.00027375    -0.00013643
     55      3      O          -0.00247092    -0.00007594    -0.00068173
     56      3      O           0.00113567    -0.00111238     0.00018045
     57      3      O          -0.00248008    -0.00024860     0.00012091
     58      3      O           0.00291653     0.00008783    -0.00008158
     59      3      O          -0.00025017     0.00013961    -0.00076419
     60      3      O          -0.00020241     0.00122968     0.00029700
     61      3      O          -0.00171013     0.00054489    -0.00031178
     62      3      O           0.01055569    -0.00537609     0.00199181
     63      3      O           0.00048199    -0.00060199     0.00026170
     64      3      O           0.00228338     0.00046766     0.00049222
     65      3      O           0.00008131    -0.00101985    -0.00061300
     66      3      O          -0.00112680    -0.00019076    -0.00092358
     67      3      O           0.00945967     0.00073401     0.00648757
     68      3      O          -0.00166972     0.00217395     0.00052680
     69      3      O          -0.00205388    -0.00347967     0.00211799
     70      3      O          -0.00737103     0.00681307     0.00057688
     71      1      Ca          0.00068304    -0.00002778    -0.00066156
     72      1      Ca         -0.00029486    -0.00074314     0.00003856
     73      1      Ca          0.00010051     0.00025894    -0.00016789
     74      1      Ca         -0.00045699     0.00044489     0.00082630
     75      2      Si          0.00096117     0.00042522     0.00002947
     76      2      Si          0.00040389    -0.00002454     0.00041708
     77      2      Si          0.00012831     0.00040580     0.00028163
     78      3      O          -0.00065998    -0.00015310     0.00079607
     79      3      O           0.00117098     0.00046212     0.00008323
     80      3      O          -0.00169960    -0.00045555    -0.00003193
     81      3      O          -0.00035403     0.00016349    -0.00006779
     82      3      O           0.00003022     0.00031846    -0.00004224
     83      3      O          -0.00055530    -0.00028653    -0.00011793
     84      3      O           0.00067315     0.00000885    -0.00027521
     85      3      O          -0.01499806     0.00144340    -0.00419950
     86      3      O           0.00238346     0.00003747     0.00000271
     87      3      O           0.00270632    -0.00031373    -0.00036747
     88      3      O           0.00093924    -0.00011701     0.00123722
     89      3      O          -0.00263328    -0.00007618     0.00060818
     90      3      O          -0.00537207     0.00590423    -0.00937903
     91      3      O          -0.00241802    -0.00112370     0.00033156
     92      3      O          -0.00170797     0.00371430    -0.00164369
     93      3      O           0.00040840    -0.00561480    -0.00240240
     94      1      Ca          0.01107387    -0.00188982     0.00163915
     95      4      H          -0.00132499     0.00019032    -0.00317297
     96      4      H           0.00018690    -0.00123357     0.00190115
     97      4      H          -0.00278417    -0.00253371     0.00042755
     98      4      H           0.00018186    -0.00076482     0.00060441
     99      4      H          -0.00150627     0.00269412    -0.00118245
    100      4      H           0.00033262     0.00048456    -0.00044050
    101      4      H          -0.00289402    -0.00115833    -0.00103485
    102      4      H          -0.00127730     0.00076871    -0.00246682
    103      4      H           0.00010067    -0.00221117     0.00407568
    104      4      H          -0.00147153    -0.00101528    -0.00023236
    105      4      H           0.00066605     0.00072380    -0.00001799
    106      4      H          -0.00011520     0.00105085    -0.00006627
    107      4      H          -0.00012630    -0.00001653     0.00054161
    108      4      H           0.00176358    -0.00157507     0.00007299
    109      4      H           0.00039957    -0.00027933     0.00026700
    110      4      H           0.00110109     0.00318405     0.00137802
    111      4      H          -0.00128552     0.00008511    -0.00283282
    112      4      H           0.00036889    -0.00118568     0.00186678
    113      4      H          -0.00317336    -0.00301592     0.00029497
    114      4      H           0.00010980    -0.00112248     0.00049794
    115      4      H          -0.00145824     0.00262069    -0.00101582
    116      4      H           0.00054326     0.00051532    -0.00057862
    117      4      H          -0.00294018    -0.00163313    -0.00108638
    118      4      H          -0.00120301     0.00054535    -0.00232035
    119      4      H          -0.00011193    -0.00234299     0.00401391
    120      4      H          -0.00136509    -0.00107326    -0.00017033
    121      4      H           0.00067688     0.00064620    -0.00002971
    122      4      H          -0.00007932     0.00109348    -0.00009640
    123      4      H          -0.00029866     0.00014357     0.00093744
    124      4      H           0.00194688    -0.00146979     0.00032445
    125      4      H           0.00028328    -0.00018713     0.00040684
    126      4      H           0.00103979     0.00329062     0.00132468
    127      4      H           0.00000853    -0.00002576     0.00008082
    128      4      H          -0.00007533     0.00002941     0.00004721
    129      4      H           0.00008824     0.00009781     0.00015136
    130      4      H           0.00005330     0.00013063    -0.00004535
    131      4      H           0.00018155    -0.00019306    -0.00006865
    132      4      H          -0.00035916    -0.00030179     0.00108114
    133      4      H           0.00003644    -0.00005332     0.00009475
    134      4      H           0.00000163     0.00007155     0.00004207
    135      4      H           0.00006021     0.00002206     0.00026863
    136      4      H           0.00004182     0.00011582    -0.00012164
    137      4      H           0.00008673    -0.00025295    -0.00004331
    138      4      H          -0.00037795    -0.00029881     0.00103988
 SUM OF ATOMIC FORCES          -0.02048641    -0.00106088    -0.00360754     0.02082866

 STRESS| Analytical stress tensor [GPa]
 STRESS|                        x                   y                   z
 STRESS|      x        3.97547503931E-01  -2.52098939705E-02   4.98608705638E-01
 STRESS|      y       -2.52098939705E-02  -2.43773241615E-01  -1.22095199645E-01
 STRESS|      z        4.98608705638E-01  -1.22095199645E-01   9.68718946770E-02
 STRESS| 1/3 Trace                                             8.35487189978E-02
 STRESS| Determinant                                           4.82981679668E-02

 STRESS| Eigenvectors and eigenvalues of the analytical stress tensor [GPa]
 STRESS|                        1                   2                   3
 STRESS| Eigenvalues  -3.46257161384E-01  -1.79627624701E-01   7.76530943078E-01
 STRESS|      x          -0.403803738354      0.452644455824      0.795019205745
 STRESS|      y           0.657950161123      0.747493996780     -0.091401916038
 STRESS|      z           0.635644654166     -0.486174579127      0.599658362938

 OPT| **************************************************************************
 OPT| Step number                                                              0
 OPT| Optimization method                                                   BFGS
 OPT| Total energy [hartree]                                    -1761.2467104468
 OPT| Used time [s]                                                      114.123
 OPT| **************************************************************************
 OPT| Estimated peak process memory [MiB]                                    448

 --------------------------
 OPTIMIZATION STEP:      1
 --------------------------

 Number of electrons:                                                        656
 Number of occupied orbitals:                                                328
 Number of molecular orbitals:                                               328

 Number of orbital functions:                                               1460
 Number of independent orbital functions:                                   1460

 Extrapolation method: ASPC


 SCF WAVEFUNCTION OPTIMIZATION

  ----------------------------------- OT ---------------------------------------
  Minimizer      : DIIS                : direct inversion
                                         in the iterative subspace
                                         using   7 DIIS vectors
                                         safer DIIS on
  Preconditioner : FULL_KINETIC        : inversion of T + eS
  Precond_solver : DEFAULT
  stepsize       :    0.15000000                  energy_gap     :    0.20000000
  eps_taylor     :   0.10000E-15                  max_taylor     :             4
  ----------------------------------- OT ---------------------------------------

  Step     Update method      Time    Convergence         Total energy    Change
  ------------------------------------------------------------------------------
     1 OT DIIS     0.15E+00    1.0     0.00013190     -1761.2493966080 -1.76E+03
     2 OT DIIS     0.15E+00    2.0     0.00008653     -1761.2504116572 -1.02E-03
     3 OT DIIS     0.15E+00    1.7     0.00004710     -1761.2512166250 -8.05E-04
     4 OT DIIS     0.15E+00    1.7     0.00002696     -1761.2515715443 -3.55E-04
     5 OT DIIS     0.15E+00    1.7     0.00001803     -1761.2516949291 -1.23E-04
     6 OT DIIS     0.15E+00    2.0     0.00001192     -1761.2517543696 -5.94E-05
     7 OT DIIS     0.15E+00    1.7     0.00000731     -1761.2517838270 -2.95E-05
     8 OT DIIS     0.15E+00    1.7     0.00000460     -1761.2517945562 -1.07E-05
     9 OT DIIS     0.15E+00    1.8     0.00000330     -1761.2517978994 -3.34E-06
    10 OT DIIS     0.15E+00    1.9     0.00000216     -1761.2517998404 -1.94E-06
    11 OT DIIS     0.15E+00    1.8     0.00000143     -1761.2518007222 -8.82E-07
    12 OT DIIS     0.15E+00    1.7     0.00000096     -1761.2518011080 -3.86E-07
    13 OT DIIS     0.15E+00    1.7     0.00000063     -1761.2518012859 -1.78E-07
    14 OT DIIS     0.15E+00    1.9     0.00000041     -1761.2518013630 -7.71E-08
    15 OT DIIS     0.15E+00    1.7     0.00000028     -1761.2518013920 -2.90E-08
    16 OT DIIS     0.15E+00    1.7     0.00000019     -1761.2518014063 -1.43E-08
    17 OT DIIS     0.15E+00    1.7     0.00000013     -1761.2518014123 -5.98E-09
    18 OT DIIS     0.15E+00    2.0     0.00000010     -1761.2518014147 -2.44E-09

  *** SCF run converged in    18 steps ***


  Electronic density on regular grids:       -655.9999999993        0.0000000007
  Core density on regular grids:              655.9999999997       -0.0000000003
  Total charge density on r-space grids:        0.0000000003
  Total charge density g-space grids:           0.0000000003

  Overlap energy of the core charge distribution:               0.00000060171703
  Self energy of the core charge distribution:              -4144.80997841715816
  Core Hamiltonian energy:                                   1117.29511316058779
  Hartree energy:                                            1613.68050708075043
  Exchange-correlation energy:                               -346.92241115878721
  Dispersion energy:                                           -0.49503268183581

  Total energy:                                             -1761.25180141472583

  outer SCF iter =    1 RMS gradient =   0.96E-07 energy =      -1761.2518014147
  outer SCF loop converged in   1 iterations or   18 steps


 ENERGY| Total FORCE_EVAL ( QS ) energy [a.u.]:            -1761.251801416144190

 ATOMIC FORCES in [a.u.]

 # Atom   Kind   Element          X              Y              Z
      1      1      Ca          0.00008911    -0.00037316    -0.00039462
      2      1      Ca          0.00028307    -0.00000331     0.00055654
      3      1      Ca         -0.00003946     0.00026956    -0.00046551
      4      1      Ca          0.00033306    -0.00012529     0.00004510
      5      2      Si          0.00089915     0.00010054     0.00018834
      6      2      Si         -0.00021716     0.00022916    -0.00074822
      7      2      Si         -0.00035285    -0.00047668    -0.00008795
      8      3      O          -0.00051581     0.00024209     0.00095516
      9      3      O           0.00096980    -0.00033453    -0.00013573
     10      3      O          -0.00114001    -0.00027715     0.00014280
     11      3      O           0.00065712     0.00003445     0.00119285
     12      3      O          -0.00097282    -0.00089594    -0.00152098
     13      3      O          -0.00107622     0.00104668    -0.00017760
     14      3      O          -0.00132041     0.00050133    -0.00006503
     15      3      O           0.00449425    -0.00101558     0.00115516
     16      3      O           0.00027211     0.00035291     0.00036482
     17      3      O           0.00095483    -0.00015675    -0.00017267
     18      3      O           0.00025435    -0.00038109    -0.00056659
     19      3      O          -0.00018021    -0.00014301    -0.00027218
     20      3      O           0.00101737    -0.00041981     0.00001250
     21      3      O           0.00039458     0.00014031     0.00122323
     22      3      O          -0.00190868     0.00082134     0.00006714
     23      3      O          -0.00095910     0.00068388     0.00057416
     24      1      Ca         -0.00067701     0.00000937     0.00002840
     25      1      Ca          0.00060315     0.00009179     0.00033301
     26      1      Ca          0.00025199    -0.00021503    -0.00033083
     27      1      Ca          0.00035245    -0.00012064    -0.00007873
     28      2      Si         -0.00119668     0.00038201    -0.00083499
     29      2      Si          0.00068290     0.00008844    -0.00064334
     30      2      Si          0.00015068    -0.00051321    -0.00034363
     31      3      O          -0.00032273     0.00032574    -0.00060343
     32      3      O          -0.00008085     0.00026920    -0.00072057
     33      3      O          -0.00119941    -0.00026560     0.00062796
     34      3      O          -0.00032752    -0.00023252     0.00058566
     35      3      O          -0.00035583    -0.00002734     0.00064858
     36      3      O           0.00016074    -0.00027740     0.00056780
     37      3      O          -0.00013889    -0.00005942     0.00018010
     38      3      O          -0.00231482     0.00084910    -0.00106681
     39      3      O          -0.00044679     0.00020542     0.00048112
     40      3      O          -0.00020777     0.00057204     0.00049671
     41      3      O           0.00050460     0.00003720    -0.00020725
     42      3      O           0.00102895    -0.00015154    -0.00075743
     43      3      O          -0.00066486     0.00127749    -0.00009380
     44      3      O           0.00065955    -0.00061428    -0.00077275
     45      3      O           0.00152727    -0.00146028     0.00068110
     46      3      O           0.00200760     0.00086739    -0.00026787
     47      1      Ca          0.00021668     0.00033193    -0.00042836
     48      1      Ca          0.00011932    -0.00038323    -0.00038588
     49      1      Ca          0.00027168     0.00005132     0.00058960
     50      1      Ca         -0.00008847     0.00035222    -0.00046605
     51      1      Ca          0.00037730    -0.00013036     0.00004099
     52      2      Si          0.00099206     0.00020425     0.00007519
     53      2      Si         -0.00034381     0.00033630    -0.00078275
     54      2      Si         -0.00029035    -0.00030163    -0.00012064
     55      3      O          -0.00060155     0.00019238     0.00090483
     56      3      O           0.00095950    -0.00036721    -0.00015249
     57      3      O          -0.00115884    -0.00031621     0.00021174
     58      3      O           0.00083792    -0.00013673     0.00112049
     59      3      O          -0.00115648    -0.00088278    -0.00133575
     60      3      O          -0.00111743     0.00102987    -0.00018816
     61      3      O          -0.00141808     0.00048495    -0.00006478
     62      3      O           0.00503546    -0.00138992     0.00111153
     63      3      O           0.00013002     0.00037769     0.00044176
     64      3      O           0.00106169    -0.00016134    -0.00012209
     65      3      O           0.00021479    -0.00040403    -0.00058017
     66      3      O          -0.00011319    -0.00026222    -0.00022148
     67      3      O           0.00075168    -0.00065517    -0.00003411
     68      3      O           0.00049955     0.00039694     0.00076951
     69      3      O          -0.00194313     0.00101105     0.00007479
     70      3      O          -0.00205213     0.00173845     0.00080948
     71      1      Ca         -0.00068773     0.00007624     0.00008223
     72      1      Ca          0.00053621     0.00004929     0.00024141
     73      1      Ca          0.00021673    -0.00016759    -0.00031611
     74      1      Ca          0.00035386     0.00009174    -0.00002348
     75      2      Si         -0.00111362     0.00022384    -0.00083656
     76      2      Si          0.00077099     0.00035874    -0.00058087
     77      2      Si          0.00017172    -0.00027474    -0.00044163
     78      3      O          -0.00019917     0.00013689    -0.00063535
     79      3      O          -0.00020526     0.00012064    -0.00074937
     80      3      O          -0.00148597    -0.00028232     0.00050918
     81      3      O          -0.00013778    -0.00027022     0.00068474
     82      3      O          -0.00018400    -0.00003772     0.00064237
     83      3      O           0.00015320    -0.00021857     0.00063146
     84      3      O          -0.00017576    -0.00014572     0.00012822
     85      3      O          -0.00266145     0.00092118    -0.00125004
     86      3      O          -0.00012899    -0.00000180     0.00064206
     87      3      O          -0.00025171     0.00055628     0.00050037
     88      3      O           0.00026027    -0.00010595    -0.00030164
     89      3      O           0.00121686    -0.00030372    -0.00079498
     90      3      O          -0.00063738     0.00095076    -0.00015405
     91      3      O           0.00074306    -0.00067095    -0.00068599
     92      3      O           0.00171184    -0.00144822     0.00049172
     93      3      O           0.00214823     0.00098629    -0.00025560
     94      1      Ca          0.00008181     0.00047328    -0.00048122
     95      4      H           0.00171440     0.00044251     0.00037420
     96      4      H           0.00072858    -0.00023824     0.00084007
     97      4      H          -0.00160592     0.00081984    -0.00002977
     98      4      H          -0.00100957    -0.00052617    -0.00011708
     99      4      H          -0.00003366     0.00005398    -0.00034715
    100      4      H          -0.00046322    -0.00089111     0.00061804
    101      4      H          -0.00174130    -0.00004623    -0.00077377
    102      4      H          -0.00124388     0.00070454    -0.00028736
    103      4      H          -0.00124657    -0.00121513     0.00068420
    104      4      H          -0.00078868     0.00053643    -0.00120072
    105      4      H          -0.00000328     0.00136592    -0.00003614
    106      4      H          -0.00063896     0.00015831    -0.00009435
    107      4      H          -0.00005345     0.00075981    -0.00067587
    108      4      H          -0.00036098     0.00025483     0.00031747
    109      4      H           0.00035818    -0.00074924     0.00104980
    110      4      H           0.00093548    -0.00087623    -0.00022920
    111      4      H           0.00181927     0.00039969     0.00065977
    112      4      H           0.00073606    -0.00028167     0.00089304
    113      4      H          -0.00226501    -0.00009379    -0.00004952
    114      4      H          -0.00119150    -0.00093035    -0.00013324
    115      4      H           0.00002529     0.00001933    -0.00034277
    116      4      H          -0.00043405    -0.00097159     0.00053069
    117      4      H          -0.00122418    -0.00047382    -0.00101010
    118      4      H          -0.00094582     0.00067620    -0.00031534
    119      4      H          -0.00136784    -0.00109875     0.00055405
    120      4      H          -0.00075518     0.00047423    -0.00103389
    121      4      H          -0.00000711     0.00137914    -0.00004858
    122      4      H          -0.00063755     0.00021718    -0.00018766
    123      4      H          -0.00027403     0.00091159    -0.00037092
    124      4      H          -0.00037252     0.00021661     0.00058207
    125      4      H           0.00035403    -0.00074770     0.00114322
    126      4      H           0.00099284    -0.00082752    -0.00015991
    127      4      H           0.00021923    -0.00022989     0.00007167
    128      4      H          -0.00000311     0.00002639    -0.00027285
    129      4      H          -0.00034171     0.00005571     0.00062032
    130      4      H           0.00022538     0.00012390     0.00013556
    131      4      H          -0.00014908    -0.00015404     0.00000627
    132      4      H          -0.00085091    -0.00040371     0.00051918
    133      4      H           0.00024170    -0.00021615     0.00015486
    134      4      H           0.00003414     0.00003647    -0.00026865
    135      4      H          -0.00036348     0.00003774     0.00073881
    136      4      H           0.00023592     0.00004297     0.00011180
    137      4      H          -0.00020843    -0.00015709    -0.00000409
    138      4      H          -0.00088253    -0.00038332     0.00047421
 SUM OF ATOMIC FORCES          -0.00923007     0.00119360     0.00118423     0.00938197

 STRESS| Analytical stress tensor [GPa]
 STRESS|                        x                   y                   z
 STRESS|      x        1.79881661551E-01   1.53418150673E-02   3.06860067606E-01
 STRESS|      y        1.53418150673E-02  -9.75277193792E-02  -5.78933076523E-02
 STRESS|      z        3.06860067606E-01  -5.78933076523E-02   4.20521474085E-02
 STRESS| 1/3 Trace                                             4.14686965267E-02
 STRESS| Determinant                                           7.28787815832E-03

 STRESS| Eigenvectors and eigenvalues of the analytical stress tensor [GPa]
 STRESS|                        1                   2                   3
 STRESS| Eigenvalues  -2.26899322579E-01  -7.52921258273E-02   4.26597537986E-01
 STRESS|      x          -0.563353058214      0.279891835947      0.777363423356
 STRESS|      y           0.392218907567      0.918693915929     -0.046538343133
 STRESS|      z           0.727184749804     -0.278679114763      0.627327897233

 OPT| **************************************************************************
 OPT| Step number                                                              1
 OPT| Optimization method                                                   BFGS
 OPT| Total energy [hartree]                                    -1761.2518014161
 OPT| Effective energy change [hartree]                            -0.0050909694
 OPT| Predicted energy change [hartree]                            -0.0044852562
 OPT| Scaling factor                                                0.0000000000
 OPT| Step size                                                     0.0817772001
 OPT| Trust radius                                                  0.3779452266
 OPT| Decrease in energy                                                     YES
 OPT| Used time [s]                                                       35.843
 OPT|
 OPT| Maximum step size                                             0.0817772001
 OPT| Convergence limit for maximum step size                       0.0030000000
 OPT| Maximum step size is converged                                          NO
 OPT|
 OPT| RMS step size                                                 0.0112579730
 OPT| Convergence limit for RMS step size                           0.0015000000
 OPT| RMS step size is converged                                              NO
 OPT|
 OPT| Maximum gradient                                              0.0050354594
 OPT| Convergence limit for maximum gradient                        0.0004500000
 OPT| Maximum gradient is converged                                           NO
 OPT|
 OPT| RMS gradient                                                  0.0007745590
 OPT| Convergence limit for RMS gradient                            0.0003000000
 OPT| RMS gradient is converged                                               NO
 OPT| **************************************************************************
 OPT| Estimated peak process memory after this step [MiB]                    511

 --------------------------
 OPTIMIZATION STEP:      2
 --------------------------

 Number of electrons:                                                        656
 Number of occupied orbitals:                                                328
 Number of molecular orbitals:                                               328

 Number of orbital functions:                                               1460
 Number of independent orbital functions:                                   1460

 Extrapolation method: ASPC


 SCF WAVEFUNCTION OPTIMIZATION

  ----------------------------------- OT ---------------------------------------
  Minimizer      : DIIS                : direct inversion
                                         in the iterative subspace
                                         using   7 DIIS vectors
                                         safer DIIS on
  Preconditioner : FULL_KINETIC        : inversion of T + eS
  Precond_solver : DEFAULT
  stepsize       :    0.15000000                  energy_gap     :    0.20000000
  eps_taylor     :   0.10000E-15                  max_taylor     :             4
  ----------------------------------- OT ---------------------------------------

  Step     Update method      Time    Convergence         Total energy    Change
  ------------------------------------------------------------------------------
     1 OT DIIS     0.15E+00    1.4     0.00012736     -1761.2506908651 -1.76E+03
     2 OT DIIS     0.15E+00    2.7     0.00008378     -1761.2516386872 -9.48E-04
     3 OT DIIS     0.15E+00    1.7     0.00004483     -1761.2523961415 -7.57E-04
     4 OT DIIS     0.15E+00    1.7     0.00002489     -1761.2527147404 -3.19E-04
     5 OT DIIS     0.15E+00    2.0     0.00001639     -1761.2528195834 -1.05E-04
     6 OT DIIS     0.15E+00    1.7     0.00001104     -1761.2528678199 -4.82E-05
     7 OT DIIS     0.15E+00    1.7     0.00000678     -1761.2528930381 -2.52E-05
     8 OT DIIS     0.15E+00    1.7     0.00000410     -1761.2529026270 -9.59E-06
     9 OT DIIS     0.15E+00    2.0     0.00000290     -1761.2529053301 -2.70E-06
    10 OT DIIS     0.15E+00    1.7     0.00000196     -1761.2529067373 -1.41E-06
    11 OT DIIS     0.15E+00    1.7     0.00000130     -1761.2529074481 -7.11E-07
    12 OT DIIS     0.15E+00    1.7     0.00000090     -1761.2529077568 -3.09E-07
    13 OT DIIS     0.15E+00    2.0     0.00000060     -1761.2529079138 -1.57E-07
    14 OT DIIS     0.15E+00    1.7     0.00000037     -1761.2529079864 -7.26E-08
    15 OT DIIS     0.15E+00    1.7     0.00000026     -1761.2529080110 -2.45E-08
    16 OT DIIS     0.15E+00    1.7     0.00000018     -1761.2529080221 -1.12E-08
    17 OT DIIS     0.15E+00    2.0     0.00000012     -1761.2529080271 -5.01E-09
    18 OT DIIS     0.15E+00    1.7     0.00000009     -1761.2529080293 -2.13E-09

  *** SCF run converged in    18 steps ***


  Electronic density on regular grids:       -655.9999999993        0.0000000007
  Core density on regular grids:              655.9999999997       -0.0000000003
  Total charge density on r-space grids:        0.0000000003
  Total charge density g-space grids:           0.0000000003

  Overlap energy of the core charge distribution:               0.00000060131399
  Self energy of the core charge distribution:              -4144.80997841715816
  Core Hamiltonian energy:                                   1117.26542147155692
  Hartree energy:                                            1613.70290053559233
  Exchange-correlation energy:                               -346.91620649235068
  Dispersion energy:                                           -0.49504572821655

  Total energy:                                             -1761.25290802926224

  outer SCF iter =    1 RMS gradient =   0.90E-07 energy =      -1761.2529080293
  outer SCF loop converged in   1 iterations or   18 steps


 ENERGY| Total FORCE_EVAL ( QS ) energy [a.u.]:            -1761.252908030481194

 ATOMIC FORCES in [a.u.]

 # Atom   Kind   Element          X              Y              Z
      1      1      Ca          0.00019967     0.00020523     0.00026246
      2      1      Ca          0.00028063     0.00011662    -0.00023563
      3      1      Ca          0.00034750     0.00002787    -0.00003773
      4      1      Ca          0.00033281    -0.00020963     0.00015835
      5      2      Si          0.00065096     0.00026678     0.00000023
      6      2      Si         -0.00056902     0.00000932    -0.00040625
      7      2      Si         -0.00015624    -0.00054122     0.00021528
      8      3      O          -0.00041081     0.00013932     0.00010895
      9      3      O           0.00031472     0.00018516    -0.00007682
     10      3      O          -0.00061763    -0.00059458     0.00045290
     11      3      O          -0.00014706     0.00014489    -0.00037370
     12      3      O          -0.00078808     0.00046678    -0.00077042
     13      3      O          -0.00036813    -0.00014794    -0.00020856
     14      3      O          -0.00055234     0.00041303    -0.00027179
     15      3      O           0.00250478    -0.00034382     0.00041314
     16      3      O           0.00005262     0.00031776     0.00038268
     17      3      O          -0.00015426    -0.00009635    -0.00061281
     18      3      O           0.00034342    -0.00031905    -0.00007968
     19      3      O           0.00007651    -0.00006222     0.00009992
     20      3      O          -0.00262461    -0.00007869    -0.00142113
     21      3      O          -0.00113494    -0.00047862    -0.00043368
     22      3      O           0.00076144     0.00029374    -0.00098898
     23      3      O           0.00146149    -0.00156384    -0.00057275
     24      1      Ca         -0.00012987     0.00000679    -0.00007647
     25      1      Ca          0.00015337     0.00005593     0.00025304
     26      1      Ca          0.00026510     0.00008575    -0.00040785
     27      1      Ca          0.00000004    -0.00015981    -0.00006767
     28      2      Si         -0.00087345     0.00015030    -0.00014409
     29      2      Si          0.00012251    -0.00001927    -0.00054871
     30      2      Si         -0.00013972     0.00013506    -0.00015919
     31      3      O           0.00011564    -0.00022804    -0.00015592
     32      3      O          -0.00041190    -0.00006229    -0.00011409
     33      3      O          -0.00064845     0.00006823     0.00053695
     34      3      O          -0.00056412    -0.00010664    -0.00016659
     35      3      O          -0.00071309    -0.00030023     0.00046515
     36      3      O          -0.00008821    -0.00021744    -0.00000965
     37      3      O          -0.00013178     0.00054860     0.00029219
     38      3      O          -0.00028129     0.00078808    -0.00036284
     39      3      O          -0.00049099    -0.00034256    -0.00005094
     40      3      O           0.00008328    -0.00031942    -0.00002061
     41      3      O          -0.00055715     0.00012583    -0.00022509
     42      3      O           0.00060674     0.00038505     0.00059249
     43      3      O          -0.00016854    -0.00175273     0.00104671
     44      3      O          -0.00046143     0.00032676    -0.00011529
     45      3      O          -0.00067548     0.00010233     0.00101474
     46      3      O          -0.00114798     0.00126609     0.00038228
     47      1      Ca         -0.00124857     0.00050030    -0.00052496
     48      1      Ca          0.00022923     0.00014596     0.00028027
     49      1      Ca          0.00021222     0.00014794    -0.00027609
     50      1      Ca          0.00040361     0.00000778    -0.00003183
     51      1      Ca          0.00035726    -0.00023870     0.00020076
     52      2      Si          0.00074385     0.00034464    -0.00010148
     53      2      Si         -0.00052986    -0.00011947    -0.00050100
     54      2      Si         -0.00012673    -0.00052827     0.00017578
     55      3      O          -0.00043559     0.00014907     0.00002175
     56      3      O           0.00027202     0.00018145    -0.00013335
     57      3      O          -0.00051922    -0.00052831     0.00049187
     58      3      O          -0.00025956     0.00028714    -0.00025984
     59      3      O          -0.00059170     0.00055721    -0.00049843
     60      3      O          -0.00043534    -0.00013528    -0.00010794
     61      3      O          -0.00042162     0.00032270    -0.00024642
     62      3      O           0.00210083    -0.00011878     0.00048637
     63      3      O          -0.00004024     0.00047333     0.00038076
     64      3      O          -0.00015046    -0.00007251    -0.00062531
     65      3      O           0.00035416    -0.00034707    -0.00004291
     66      3      O           0.00006832    -0.00004115     0.00005494
     67      3      O          -0.00257996     0.00010446    -0.00151325
     68      3      O          -0.00033148     0.00008594    -0.00006212
     69      3      O           0.00098209     0.00017553    -0.00085382
     70      3      O          -0.00008243    -0.00091311    -0.00050299
     71      1      Ca         -0.00014040    -0.00006539    -0.00010241
     72      1      Ca          0.00017849    -0.00000710     0.00021558
     73      1      Ca          0.00025166     0.00000316    -0.00043688
     74      1      Ca          0.00004121    -0.00018087    -0.00000471
     75      2      Si         -0.00087781     0.00017284    -0.00015127
     76      2      Si          0.00009857     0.00000698    -0.00065127
     77      2      Si         -0.00016131     0.00009763    -0.00007156
     78      3      O           0.00022413    -0.00018096    -0.00017437
     79      3      O          -0.00027147    -0.00017109    -0.00017222
     80      3      O          -0.00084738     0.00012869     0.00068411
     81      3      O          -0.00048635    -0.00005234    -0.00006693
     82      3      O          -0.00050002    -0.00039528     0.00039620
     83      3      O          -0.00008835    -0.00026422     0.00007012
     84      3      O           0.00004534     0.00063478     0.00022574
     85      3      O          -0.00042579     0.00081302    -0.00044591
     86      3      O          -0.00073210    -0.00008675    -0.00017898
     87      3      O           0.00013358    -0.00029234    -0.00013119
     88      3      O          -0.00045115     0.00021798    -0.00032981
     89      3      O           0.00051654     0.00054657     0.00060112
     90      3      O          -0.00009642    -0.00170079     0.00117549
     91      3      O          -0.00044346     0.00050105    -0.00013481
     92      3      O          -0.00036948     0.00014127     0.00112974
     93      3      O          -0.00129852     0.00117827     0.00035220
     94      1      Ca         -0.00129685     0.00052944    -0.00051529
     95      4      H           0.00272034     0.00021805     0.00152205
     96      4      H           0.00092455    -0.00004081     0.00030067
     97      4      H          -0.00001793     0.00049578     0.00021314
     98      4      H          -0.00020453     0.00030677     0.00047967
     99      4      H          -0.00093874    -0.00065150     0.00074833
    100      4      H          -0.00117706     0.00038909     0.00039338
    101      4      H          -0.00075707     0.00095886     0.00082981
    102      4      H          -0.00058297     0.00010850    -0.00015999
    103      4      H          -0.00079166     0.00158215    -0.00170814
    104      4      H          -0.00047766     0.00000557     0.00033659
    105      4      H           0.00021757    -0.00003982     0.00005048
    106      4      H           0.00018454     0.00040756     0.00027877
    107      4      H           0.00031140    -0.00042972    -0.00079780
    108      4      H           0.00034594     0.00046377    -0.00041521
    109      4      H           0.00070264    -0.00036142     0.00074255
    110      4      H           0.00123437    -0.00145238    -0.00059430
    111      4      H           0.00278180     0.00016988     0.00159550
    112      4      H           0.00063023    -0.00026847     0.00043142
    113      4      H          -0.00077758    -0.00020916     0.00003939
    114      4      H          -0.00042008    -0.00011333     0.00031407
    115      4      H          -0.00099875    -0.00051260     0.00072325
    116      4      H          -0.00112517     0.00044325     0.00027222
    117      4      H          -0.00059868     0.00084529     0.00038280
    118      4      H          -0.00066507     0.00024094    -0.00003019
    119      4      H          -0.00095061     0.00154261    -0.00188825
    120      4      H          -0.00040625    -0.00004309     0.00038878
    121      4      H           0.00021174    -0.00011860     0.00005571
    122      4      H           0.00028877     0.00039783     0.00024722
    123      4      H           0.00016601    -0.00035744    -0.00060076
    124      4      H           0.00036635     0.00043198    -0.00026176
    125      4      H           0.00071670    -0.00032144     0.00076782
    126      4      H           0.00127906    -0.00139193    -0.00058108
    127      4      H           0.00035797    -0.00032953     0.00012456
    128      4      H          -0.00007627    -0.00013409    -0.00033111
    129      4      H          -0.00017125    -0.00001854     0.00034851
    130      4      H           0.00009670     0.00021048    -0.00017651
    131      4      H          -0.00007926    -0.00022010    -0.00023939
    132      4      H          -0.00027208    -0.00018272     0.00009892
    133      4      H           0.00035916    -0.00033640     0.00019596
    134      4      H          -0.00008389    -0.00013626    -0.00033328
    135      4      H          -0.00015681    -0.00005052     0.00042996
    136      4      H           0.00009912     0.00008535    -0.00016907
    137      4      H          -0.00017458    -0.00022597    -0.00028707
    138      4      H          -0.00021780    -0.00019109     0.00005949
 SUM OF ATOMIC FORCES          -0.01348663     0.00186906    -0.00154686     0.01370312

 STRESS| Analytical stress tensor [GPa]
 STRESS|                        x                   y                   z
 STRESS|      x        9.35912227027E-02   6.00848925857E-02   2.31982254530E-01
 STRESS|      y        6.00848925857E-02  -1.61780376966E-02  -1.78725078886E-02
 STRESS|      z        2.31982254530E-01  -1.78725078886E-02  -4.31102238701E-02
 STRESS| 1/3 Trace                                             1.14343203787E-02
 STRESS| Determinant                                           5.63411907294E-04

 STRESS| Eigenvectors and eigenvalues of the analytical stress tensor [GPa]
 STRESS|                        1                   2                   3
 STRESS| Eigenvalues  -2.28667749396E-01  -9.05747611362E-03   2.72028186646E-01
 STRESS|      x          -0.596387513093      0.035307247456      0.801919779345
 STRESS|      y           0.233239974359      0.963549913099      0.131036938794
 STRESS|      z           0.768063180076     -0.265188542823      0.582884197905

 OPT| **************************************************************************
 OPT| Step number                                                              2
 OPT| Optimization method                                                   BFGS
 OPT| Total energy [hartree]                                    -1761.2529080305
 OPT| Effective energy change [hartree]                            -0.0011066143
 OPT| Predicted energy change [hartree]                            -0.0009623663
 OPT| Scaling factor                                                0.0000000000
 OPT| Step size                                                     0.0396168365
 OPT| Trust radius                                                  0.3779452266
 OPT| Decrease in energy                                                     YES
 OPT| Used time [s]                                                       36.945
 OPT|
 OPT| Maximum step size                                             0.0396168365
 OPT| Convergence limit for maximum step size                       0.0030000000
 OPT| Maximum step size is converged                                          NO
 OPT|
 OPT| RMS step size                                                 0.0071425821
 OPT| Convergence limit for RMS step size                           0.0015000000
 OPT| RMS step size is converged                                              NO
 OPT|
 OPT| Maximum gradient                                              0.0027818041
 OPT| Convergence limit for maximum gradient                        0.0004500000
 OPT| Maximum gradient is converged                                           NO
 OPT|
 OPT| RMS gradient                                                  0.0006079381
 OPT| Convergence limit for RMS gradient                            0.0003000000
 OPT| RMS gradient is converged                                               NO
 OPT| **************************************************************************
 OPT| Estimated peak process memory after this step [MiB]                    511

 --------------------------
 OPTIMIZATION STEP:      3
 --------------------------

 Number of electrons:                                                        656
 Number of occupied orbitals:                                                328
 Number of molecular orbitals:                                               328

 Number of orbital functions:                                               1460
 Number of independent orbital functions:                                   1460

 Extrapolation method: ASPC


 SCF WAVEFUNCTION OPTIMIZATION

  ----------------------------------- OT ---------------------------------------
  Minimizer      : DIIS                : direct inversion
                                         in the iterative subspace
                                         using   7 DIIS vectors
                                         safer DIIS on
  Preconditioner : FULL_KINETIC        : inversion of T + eS
  Precond_solver : DEFAULT
  stepsize       :    0.15000000                  energy_gap     :    0.20000000
  eps_taylor     :   0.10000E-15                  max_taylor     :             4
  ----------------------------------- OT ---------------------------------------

  Step     Update method      Time    Convergence         Total energy    Change
  ------------------------------------------------------------------------------
     1 OT DIIS     0.15E+00    1.0     0.00010238     -1761.2518862083 -1.76E+03
     2 OT DIIS     0.15E+00    1.7     0.00006759     -1761.2525008326 -6.15E-04
     3 OT DIIS     0.15E+00    1.7     0.00003413     -1761.2529990736 -4.98E-04
     4 OT DIIS     0.15E+00    1.9     0.00001809     -1761.2531781995 -1.79E-04
     5 OT DIIS     0.15E+00    1.7     0.00001143     -1761.2532329814 -5.48E-05
     6 OT DIIS     0.15E+00    1.7     0.00000761     -1761.2532560124 -2.30E-05
     7 OT DIIS     0.15E+00    2.7     0.00000463     -1761.2532676961 -1.17E-05
     8 OT DIIS     0.15E+00    2.0     0.00000276     -1761.2532720318 -4.34E-06
     9 OT DIIS     0.15E+00    1.7     0.00000193     -1761.2532732227 -1.19E-06
    10 OT DIIS     0.15E+00    1.7     0.00000131     -1761.2532738055 -5.83E-07
    11 OT DIIS     0.15E+00    1.7     0.00000085     -1761.2532741241 -3.19E-07
    12 OT DIIS     0.15E+00    1.9     0.00000061     -1761.2532742465 -1.22E-07
    13 OT DIIS     0.15E+00    1.7     0.00000041     -1761.2532743157 -6.92E-08
    14 OT DIIS     0.15E+00    1.7     0.00000026     -1761.2532743521 -3.64E-08
    15 OT DIIS     0.15E+00    1.7     0.00000018     -1761.2532743643 -1.23E-08
    16 OT DIIS     0.15E+00    1.9     0.00000012     -1761.2532743698 -5.50E-09
    17 OT DIIS     0.15E+00    1.7     0.00000009     -1761.2532743724 -2.56E-09

  *** SCF run converged in    17 steps ***


  Electronic density on regular grids:       -655.9999999993        0.0000000007
  Core density on regular grids:              655.9999999997       -0.0000000003
  Total charge density on r-space grids:        0.0000000003
  Total charge density g-space grids:           0.0000000003

  Overlap energy of the core charge distribution:               0.00000060070601
  Self energy of the core charge distribution:              -4144.80997841715816
  Core Hamiltonian energy:                                   1117.24997389858936
  Hartree energy:                                            1613.71450946564141
  Exchange-correlation energy:                               -346.91272954696899
  Dispersion energy:                                           -0.49505037321653

  Total energy:                                             -1761.25327437240730

  outer SCF iter =    1 RMS gradient =   0.88E-07 energy =      -1761.2532743724
  outer SCF loop converged in   1 iterations or   17 steps


 ENERGY| Total FORCE_EVAL ( QS ) energy [a.u.]:            -1761.253274373537806

 ATOMIC FORCES in [a.u.]

 # Atom   Kind   Element          X              Y              Z
      1      1      Ca          0.00004682     0.00025832     0.00008817
      2      1      Ca          0.00000060    -0.00010738    -0.00045238
      3      1      Ca          0.00022541     0.00002796    -0.00012434
      4      1      Ca         -0.00010742    -0.00024837     0.00037100
      5      2      Si          0.00098980     0.00013652     0.00007580
      6      2      Si          0.00007571     0.00016430     0.00008587
      7      2      Si          0.00027579    -0.00009946     0.00044552
      8      3      O          -0.00038493    -0.00009123    -0.00041730
      9      3      O           0.00006376     0.00021830    -0.00012347
     10      3      O           0.00010308    -0.00001563    -0.00014380
     11      3      O          -0.00029775    -0.00013746    -0.00032453
     12      3      O          -0.00023581     0.00061352    -0.00070663
     13      3      O          -0.00028236    -0.00039859    -0.00031693
     14      3      O          -0.00026806     0.00005619    -0.00024947
     15      3      O          -0.00131843     0.00016748    -0.00033183
     16      3      O           0.00004334     0.00004384    -0.00028718
     17      3      O          -0.00057692    -0.00007036    -0.00014695
     18      3      O           0.00049831    -0.00015596     0.00014064
     19      3      O           0.00002794     0.00010785     0.00046136
     20      3      O          -0.00196828     0.00025233    -0.00140371
     21      3      O          -0.00049797    -0.00079925    -0.00008654
     22      3      O           0.00097197     0.00072791    -0.00094988
     23      3      O           0.00070977    -0.00130640    -0.00069617
     24      1      Ca         -0.00006432    -0.00009415    -0.00013544
     25      1      Ca         -0.00028490    -0.00011601    -0.00013158
     26      1      Ca         -0.00005036     0.00003853    -0.00026428
     27      1      Ca         -0.00033056    -0.00015331    -0.00013799
     28      2      Si         -0.00043672    -0.00001899     0.00021322
     29      2      Si          0.00005137     0.00038902     0.00002434
     30      2      Si          0.00035461    -0.00028497    -0.00008585
     31      3      O          -0.00007433     0.00019142    -0.00010627
     32      3      O           0.00006357     0.00001141     0.00024511
     33      3      O          -0.00057690     0.00038481     0.00000693
     34      3      O          -0.00065143    -0.00009770    -0.00026772
     35      3      O          -0.00081776    -0.00013787     0.00002136
     36      3      O          -0.00025466     0.00000791    -0.00004443
     37      3      O          -0.00008358    -0.00019858    -0.00019101
     38      3      O          -0.00001432     0.00055759    -0.00025540
     39      3      O          -0.00002076     0.00052078    -0.00013857
     40      3      O          -0.00042833     0.00024721    -0.00002289
     41      3      O          -0.00036331     0.00018215    -0.00003653
     42      3      O          -0.00004581    -0.00005215    -0.00028666
     43      3      O           0.00152777    -0.00125309     0.00251634
     44      3      O           0.00045344     0.00005211     0.00038288
     45      3      O          -0.00098077    -0.00013185     0.00010841
     46      3      O          -0.00061863     0.00106780     0.00049377
     47      1      Ca         -0.00075186     0.00021164     0.00000964
     48      1      Ca          0.00003481     0.00026296     0.00003044
     49      1      Ca          0.00000158    -0.00006039    -0.00046775
     50      1      Ca          0.00024846    -0.00001658    -0.00007756
     51      1      Ca         -0.00015742    -0.00016921     0.00042756
     52      2      Si          0.00082025     0.00017156     0.00002524
     53      2      Si          0.00020676     0.00022258     0.00005057
     54      2      Si          0.00023971     0.00005394     0.00046248
     55      3      O          -0.00026464    -0.00013296    -0.00031585
     56      3      O           0.00000928     0.00022917    -0.00017069
     57      3      O           0.00029207    -0.00003431    -0.00008227
     58      3      O          -0.00035679    -0.00019474    -0.00023981
     59      3      O          -0.00001142     0.00045189    -0.00046695
     60      3      O          -0.00022212    -0.00043082    -0.00024212
     61      3      O          -0.00014627    -0.00004203    -0.00022459
     62      3      O          -0.00190783     0.00046550     0.00000851
     63      3      O           0.00002212    -0.00002694    -0.00030740
     64      3      O          -0.00057293    -0.00009933    -0.00017453
     65      3      O           0.00048212    -0.00018994     0.00014279
     66      3      O          -0.00000787     0.00013416     0.00042785
     67      3      O          -0.00196829     0.00032491    -0.00151951
     68      3      O           0.00003256    -0.00059678    -0.00001276
     69      3      O           0.00077904     0.00072734    -0.00088461
     70      3      O           0.00005162    -0.00206077    -0.00110868
     71      1      Ca         -0.00007885     0.00000600    -0.00022255
     72      1      Ca         -0.00026572    -0.00005893    -0.00011156
     73      1      Ca         -0.00005895     0.00003858    -0.00031496
     74      1      Ca         -0.00035155    -0.00006363    -0.00012712
     75      2      Si         -0.00042971     0.00000043     0.00033574
     76      2      Si          0.00010935     0.00055640    -0.00003813
     77      2      Si          0.00041713    -0.00012917    -0.00012647
     78      3      O           0.00000862     0.00016244    -0.00007691
     79      3      O           0.00012149    -0.00004058     0.00024656
     80      3      O          -0.00070927     0.00022923    -0.00005941
     81      3      O          -0.00060600    -0.00013113    -0.00018342
     82      3      O          -0.00095560    -0.00028590     0.00004597
     83      3      O          -0.00032572    -0.00001160    -0.00013508
     84      3      O          -0.00025165    -0.00027372    -0.00015079
     85      3      O          -0.00011755     0.00055242    -0.00040971
     86      3      O           0.00011064     0.00023347    -0.00008849
     87      3      O          -0.00048824     0.00017468     0.00010831
     88      3      O          -0.00025413     0.00014674    -0.00004329
     89      3      O          -0.00012340    -0.00014095    -0.00026480
     90      3      O           0.00148910    -0.00140286     0.00249161
     91      3      O           0.00046590    -0.00000539     0.00040065
     92      3      O          -0.00104248    -0.00010203     0.00009760
     93      3      O          -0.00078287     0.00107094     0.00041238
     94      1      Ca         -0.00080086     0.00021104     0.00014506
     95      4      H           0.00214046     0.00013994     0.00129375
     96      4      H           0.00022365    -0.00012448     0.00025257
     97      4      H           0.00016588     0.00013991     0.00002629
     98      4      H          -0.00045335     0.00066105     0.00038318
     99      4      H          -0.00044916    -0.00087012     0.00073500
    100      4      H          -0.00115215     0.00033053     0.00038200
    101      4      H           0.00004097     0.00114091     0.00131831
    102      4      H          -0.00011235    -0.00027388    -0.00024287
    103      4      H          -0.00115749     0.00124017    -0.00222898
    104      4      H          -0.00043439     0.00007774     0.00010863
    105      4      H          -0.00021147    -0.00012827    -0.00000929
    106      4      H          -0.00011513     0.00012140     0.00009783
    107      4      H           0.00033972    -0.00017752    -0.00071062
    108      4      H           0.00006266     0.00042858    -0.00009306
    109      4      H           0.00032080    -0.00004753     0.00034067
    110      4      H           0.00056693    -0.00114713    -0.00070626
    111      4      H           0.00214943     0.00010367     0.00136493
    112      4      H           0.00006964    -0.00025355     0.00032554
    113      4      H          -0.00010480    -0.00007614     0.00000442
    114      4      H          -0.00049046     0.00044773     0.00032293
    115      4      H          -0.00032671    -0.00076951     0.00064044
    116      4      H          -0.00106482     0.00028310     0.00035666
    117      4      H          -0.00034932     0.00129446     0.00100284
[...]
 flops   421 x    32 x    62          47108889600       0.0%    100.0%      0.0%     
 flops    96 x    32 x    50          48384000000       0.0%    100.0%      0.0%     
 flops     5 x    32 x     5          49004032000       0.0%    100.0%      0.0%     
 flops     5 x    13 x    32          51401292800       0.0%    100.0%      0.0%     
 flops    13 x     5 x    32          51401292800       0.0%    100.0%      0.0%     
 flops   104 x    32 x    50          52416000000       0.0%    100.0%      0.0%     
 flops   390 x    32 x    50          52790400000       0.0%    100.0%      0.0%     
 flops    64 x    32 x    62          53329920000       0.0%    100.0%      0.0%     
 flops    14 x    32 x     5          56131891200       0.0%    100.0%      0.0%     
 flops     5 x    32 x    14          56131891200       0.0%    100.0%      0.0%     
 flops   313 x    32 x    57          56349014400       0.0%    100.0%      0.0%     
 flops   421 x    32 x    50          56986560000       0.0%    100.0%      0.0%     
 flops    14 x    13 x    32          58877844480       0.0%    100.0%      0.0%     
 flops    13 x    14 x    32          58877844480       0.0%    100.0%      0.0%     
 flops   336 x    32 x    57          60489676800       0.0%    100.0%      0.0%     
 flops    14 x    32 x    14          64296529920       0.0%    100.0%      0.0%     
 flops    96 x    32 x    57          64350720000       0.0%    100.0%      0.0%     
 flops    64 x    32 x    50          64512000000       0.0%    100.0%      0.0%     
 flops    96 x    32 x    32          69304320000       0.0%    100.0%      0.0%     
 flops   104 x    32 x    57          69713280000       0.0%    100.0%      0.0%     
 flops   390 x    32 x    57          70211232000       0.0%    100.0%      0.0%     
 flops   104 x    32 x    32          75079680000       0.0%    100.0%      0.0%     
 flops   421 x    32 x    57          75792124800       0.0%    100.0%      0.0%     
 flops    64 x    32 x    57          85800960000       0.0%    100.0%      0.0%     
 flops    64 x    32 x    32          92405760000       0.0%    100.0%      0.0%     
 flops   313 x    32 x    32         208461004800       0.0%    100.0%      0.0%     
 flops     5 x    32 x    13         220072652800       0.0%    100.0%      0.0%     
 flops    13 x    32 x     5         220072652800       0.0%    100.0%      0.0%     
 flops   336 x    32 x    32         223779225600       0.0%    100.0%      0.0%     
 flops    13 x    13 x    32         233875882240       0.0%    100.0%      0.0%     
 flops    14 x    32 x    13         252083220480       0.0%    100.0%      0.0%     
 flops    13 x    32 x    14         252083220480       0.0%    100.0%      0.0%     
 flops   390 x    32 x    32         259743744000       0.0%    100.0%      0.0%     
 flops   421 x    32 x    32         280390041600       0.0%    100.0%      0.0%     
 flops    13 x    32 x    13         988326277120       0.0%    100.0%      0.0%     
 flops inhomo. stacks                841781397600     100.0%      0.0%      0.0%
 flops total                         6.020723E+12      14.0%     86.0%      0.0%
 flops max/rank                    282.608700E+09      15.1%     84.9%      0.0%
 matmuls inhomo. stacks                   1318680     100.0%      0.0%      0.0%
 matmuls total                          416517717       0.3%     99.7%      0.0%
 number of processed stacks              26946414       4.9%     95.1%      0.0%
 average stack size                                     1.0      16.2       0.0
 marketing flops                     6.350702E+12
 -------------------------------------------------------------------------------
 # multiplications                          12506
 max memory usage/rank             536.489984E+06
 # max total images/rank                       13
 # max 3D layers                                1
 # MPI messages exchanged                24711856
 MPI messages size (bytes):
  total size                         1.716504E+12
  min size                           0.000000E+00
  max size                         381.680000E+03
  average size                      69.460750E+03
 MPI breakdown and total messages size (bytes):
             size <=      128            11734374                        0
       128 < size <=     8192              967372               6364018432
      8192 < size <=    32768             1645510              22971097600
     32768 < size <=   131072             5376500             334822880000
    131072 < size <=  4194304             4988100            1351557040000
   4194304 < size <= 16777216                   0                        0
  16777216 < size                               0                        0
 -------------------------------------------------------------------------------

 *** WARNING in dbcsr_mm.F:301 :: Using a non-square number of MPI ranks ***
 *** might lead to poor performance. Used ranks: 52 Suggested: 49 100    ***

 -------------------------------------------------------------------------------
 -                                                                             -
 -                      DBCSR MESSAGE PASSING PERFORMANCE                      -
 -                                                                             -
 -------------------------------------------------------------------------------
 ROUTINE             CALLS      AVE VOLUME [Bytes]
 MP_Bcast              113                     12.
 MP_Allreduce        67505                      9.
 MP_Alltoall         43114                  23589.
 MP_ISend          1128468                  32012.
 MP_IRecv          1090212                  31816.
 -------------------------------------------------------------------------------

 -------------------------------------------------------------------------------
 -                                                                             -
 -                                DBM STATISTICS                               -
 -                                                                             -
 -------------------------------------------------------------------------------
    M  x    N  x    K                                          COUNT     PERCENT
 -------------------------------------------------------------------------------

 -------------------------------------------------------------------------------
 -                                                                             -
 -                                GRID STATISTICS                              -
 -                                                                             -
 -------------------------------------------------------------------------------
 LP    KERNEL             BACKEND                              COUNT     PERCENT
 3     collocate general  CPU                               73981723      22.38%
 4     collocate general  CPU                               70993210      21.47%
 3     integrate general  CPU                               70346343      21.28%
 4     integrate general  CPU                               67256728      20.34%
 2     collocate general  CPU                               20186243       6.11%
 2     integrate general  CPU                               19123784       5.78%
 6     integrate general  CPU                                3788504       1.15%
 7     integrate general  CPU                                3635470       1.10%
 5     integrate general  CPU                                1033737       0.31%
 0     collocate general  CPU                                 265512       0.08%
 -------------------------------------------------------------------------------

 MEMORY| Estimated peak process memory [MiB]                                 512

 -------------------------------------------------------------------------------
 -                                                                             -
 -                         MESSAGE PASSING PERFORMANCE                         -
 -                                                                             -
 -------------------------------------------------------------------------------

 ROUTINE             CALLS      AVE VOLUME [Bytes]
 MP_Group                4
 MP_Bcast             4871                 156999.
 MP_Allreduce        16688                    370.
 MP_Sync                89
 MP_Alltoall         16673                2613239.
 MP_SendRecv        114903                  64945.
 MP_ISendRecv       107406                  68832.
 MP_Wait            207910
 MP_comm_split          49
 MP_ISend            91636                 237201.
 MP_IRecv            91636                 237200.
 -------------------------------------------------------------------------------


 -------------------------------------------------------------------------------
 -                                                                             -
 -                           R E F E R E N C E S                               -
 -                                                                             -
 -------------------------------------------------------------------------------
 
 CP2K version 2024.3, the CP2K developers group (2024).
 CP2K is freely available from https://www.cp2k.org/ .
 
 T. D. Kuehne, M. Iannuzzi, M. Del Ben, V. V. Rybkin, P. Seewald, F. Stein, T. 
 Laino, R. Z. Khaliullin, O. Schuett, F. Schiffmann, D. Golze, J. Wilhelm, S. 
 Chulkov, M. H. Bani-Hashemian, V. Weber, U. Borstnik, M. Taillefumier, A. S. 
 Jakobovits, A. Lazzaro, H. Pabst, T. Mueller, R. Schade, M. Guidon, S. 
 Andermatt, N. Holmberg, G. K. Schenter, A. Hehn, A. Bussy, F. Belleflamme, G. 
 Tabacchi, A. Gloess, M. Lass, I. Bethune, C. J. Mundy, C. Plessl, M. Watkins, 
 J. VandeVondele, M. Krack, J. Hutter.
 J. Chem. Phys. 152, 194103 (2020).
 CP2K: An electronic structure and molecular dynamics software package - 
 Quickstep: Efficient and accurate electronic structure calculations.
 https://doi.org/10.1063/5.0007045

 L. Goerigk, A. Hansen, C. Bauer, S. Ehrlich, A. Najibi, S. Grimme.
 Phys. Chem. Chem. Phys. 19, 32184-32215 (2017).
 A look at the density functional theory zoo with the advanced GMTKN55 database 
 for general main group thermochemistry, kinetics and noncovalent interactions.
 https://doi.org/10.1039/C7CP04913G

 O. Schuett, P. Messmer, J. Hutter, J. VandeVondele.
 Electronic Structure Calculations on Graphics Processing Units, 173-190 (2016).
 GPU-Accelerated Sparse Matrix-Matrix Multiplication for Linear Scaling Density 
 Functional Theory.
 https://doi.org/10.1002/9781118670712.ch8

 A. Heinecke, G. Henry, M. Hutchinson, H. Pabst.
 Proceedings of Intl. Supercomputing Conference, 981-991 (2016).
 LIBXSMM: Accelerating Small Matrix Multiplications by Runtime Code Generation.
 https://doi.org/10.1109/SC.2016.83

 J. Hutter, M. Iannuzzi, F. Schiffmann, J. VandeVondele.
 WIREs Comput Mol Sci. 4, 15-25 (2014).
 CP2K: atomistic simulations of condensed matter systems.
 https://doi.org/10.1002/wcms.1159

 U. Borstnik, J. VandeVondele, V. Weber, J. Hutter.
 Parallel Comput. 40, 47-58 (2014).
 Sparse matrix multiplication: The distributed block-compressed sparse row 
 library.
 https://doi.org/10.1016/j.parco.2014.03.012

 A. Marek, V. Blum, R. Johanni, V. Havu, B. Lang, T. Auckenthaler, A. Heinecke, 
 H. Bungartz, H. Lederer.
 J. Phys. Condens. Matter 26, 213201 (2014).
 The ELPA library: scalable parallel eigenvalue solutions for electronic 
 structure theory and computational science.
 https://doi.org/10.1088/0953-8984/26/21/213201

 S. Grimme, S. Ehrlich, L. Goerigk.
 J. Comput. Chem. 32, 1456 (2011).
 Effect of the damping function in dispersion corrected density functional 
 theory.
 https://doi.org/10.1002/jcc.21759

 S. Grimme, J. Antony, S. Ehrlich, H. Krieg.
 J. Chem. Phys. 132, 154104 (2010).
 A consistent and accurate ab initio parametrization of density functional 
 dispersion correction (DFT-D) for the 94 elements H-Pu.
 https://doi.org/10.1063/1.3382344

 J. P. Perdew, A. Ruzsinszky, G. I. Csonka, O. A. Vydrov, G. E. Scuseria, L. A. 
 Constantin, X. Zhou, K. Burke.
 Phys. Rev. Lett. 100, 136406-136409 (2008).
 Restoring the Density-Gradient Expansion for Exchange in Solids and Surfaces.
 https://doi.org/10.1103/PhysRevLett.100.136406

 J. VandeVondele, J. Hutter.
 J. Chem. Phys. 127, 114105 (2007).
 Gaussian basis sets for accurate calculations on molecular systems in gas and 
 condensed phases.
 https://doi.org/10.1063/1.2770708

 T. D. Kühne, M. Krack, F. R. Mohamed, M. Parrinello.
 Phys. Rev. Lett. 98, 066401 (2007).
 Efficient and accurate Car-Parrinello-like approach to Born-Oppenheimer 
 molecular dynamics.
 https://doi.org/10.1103/PhysRevLett.98.066401

 J. VandeVondele, M. Krack, F. Mohamed, M. Parrinello, T. Chassaing, J. Hutter.
 Comput. Phys. Commun. 167, 103-128 (2005).
 QUICKSTEP: Fast and accurate density functional calculations using a mixed 
 Gaussian and plane waves approach.
 https://doi.org/10.1016/j.cpc.2004.12.014

 M. Krack.
 Theor. Chem. Acc. 114, 145-152 (2005).
 Pseudopotentials for H to Kr optimized for gradient-corrected 
 exchange-correlation functionals.
 https://doi.org/10.1007/s00214-005-0655-y

 M. Frigo, S. G. Johnson.
 Proc. IEEE 93, 216-231 (2005).
 The design and implementation of FFTW3.
 https://doi.org/10.1109/JPROC.2004.840301

 J. Kolafa.
 J. Comput. Chem. 25, 335-342 (2004).
 Time-reversible always stable predictor-corrector method for molecular dynamics 
 of polarizable molecules.
 https://doi.org/10.1002/jcc.10385

 J. VandeVondele, J. Hutter.
 J. Chem. Phys. 118, 4365-4369 (2003).
 An efficient orbital transformation method for electronic structure 
 calculations.
 https://doi.org/10.1063/1.1543154

 C. Hartwigsen, S. Goedecker, J. Hutter.
 Phys. Rev. B 58, 3641-3662 (1998).
 Relativistic separable dual-space Gaussian pseudopotentials from H to Rn.
 https://doi.org/10.1103/PhysRevB.58.3641

 G. Lippert, J. Hutter, M. Parrinello.
 Mol. Phys. 92, 477-487 (1997).
 A hybrid Gaussian and plane wave density functional scheme.
 https://doi.org/10.1080/002689797170220

 S. Goedecker, M. Teter, J. Hutter.
 Phys. Rev. B 54, 1703-1710 (1996).
 Separable dual-space Gaussian pseudopotentials.
 https://doi.org/10.1103/PhysRevB.54.1703

 J. P. Perdew, K. Burke, M. Ernzerhof.
 Phys. Rev. Lett. 77, 3865-3868 (1996).
 Generalized gradient approximation made simple.
 https://doi.org/10.1103/PhysRevLett.77.3865


 -------------------------------------------------------------------------------
 -                                                                             -
 -                                T I M I N G                                  -
 -                                                                             -
 -------------------------------------------------------------------------------
 SUBROUTINE                       CALLS  ASD         SELF TIME        TOTAL TIME
                                MAXIMUM       AVERAGE  MAXIMUM  AVERAGE  MAXIMUM
 CP2K                                 1  1.0    0.012    0.015 1362.390 1362.392
 cp_geo_opt                           1  2.0    0.000    0.000 1362.053 1362.055
 geoopt_bfgs                          1  3.0    0.014    0.017 1362.053 1362.055
 cp_eval_at                          37  4.0    0.007    0.023 1360.898 1360.912
 qs_forces                           36  5.0    0.009    0.012 1344.480 1344.484
 qs_energies                         37  6.0    0.003    0.004 1262.062 1262.079
 scf_env_do_scf                      37  7.0    0.002    0.004 1212.470 1212.477
 scf_env_do_scf_inner_loop          666  8.0    0.017    0.084 1170.360 1170.531
 rebuild_ks_matrix                  702  9.8    0.003    0.004  715.045  715.922
 qs_ks_build_kohn_sham_matrix       702 10.8    0.132    0.147  715.042  715.919
 qs_ks_update_qs_env                705  9.0    0.006    0.009  642.370  643.137
 qs_rho_update_rho_low              703  9.0    0.004    0.005  540.022  540.452
 calculate_rho_elec                 703 10.0    0.363    0.446  540.019  540.448
 sum_up_and_integrate               702 11.8    0.018    0.032  535.487  536.046
 integrate_v_rspace                 702 12.8    0.033    0.058  534.950  535.683
 grid_collocate_task_list           703 11.0  424.043  437.696  424.043  437.696
 grid_integrate_task_list           702 13.8  417.984  431.438  417.984  431.438
 fft_wrap_pw1pw2                  11976 14.2    0.509    0.591  154.441  161.668
 fft_wrap_pw1pw2_250               7761 15.6    7.470    7.810  142.954  149.417
 density_rs2pw                      703 11.0    0.069    0.084  113.723  132.531
 qs_vxc_create                      702 11.8    0.037    0.048  127.770  130.285
 xc_vxc_pw_create                   702 12.8    3.148    3.819  127.733  130.251
 fft3d_ps                         11976 16.2   58.324   65.272  120.255  129.363
 transfer_rs2pw                    2849 12.0    0.052    0.077   84.371  102.885
 xc_pw_derive                      4212 14.8    0.113    0.141   93.301  102.157
 mp_waitany                       91636 15.3   77.092   96.416   77.092   96.416
 transfer_rs2pw_250                 740 12.9   10.973   13.775   75.023   93.625
 potential_pw2rs                    702 13.8    0.088    0.104   84.410   84.699
 qs_ks_update_qs_env_forces          36  6.0    0.000    0.000   73.009   73.406
 dbcsr_multiply_generic           12506 13.9    0.690    0.839   70.828   72.669
 mp_alltoall_z22v                 11976 18.2   43.688   69.885   43.688   69.885
 transfer_pw2rs                    2844 14.8    0.050    0.064   69.104   69.204
 xc_pw_divergence                   702 13.8    0.057    0.075   60.024   65.720
 xc_rho_set_and_dset_create         702 13.8    1.581    1.992   62.190   63.600
 transfer_pw2rs_250                 738 15.6   26.944   28.143   54.295   56.073
 qs_scf_new_mos                     666  9.0    0.004    0.006   53.607   54.340
 qs_scf_loop_do_ot                  666 10.0    0.004    0.006   53.603   54.337
 mp_alltoall_d11v                  9625 15.1   33.211   52.399   33.211   52.399
 rs_gather_matrices                 702 13.8    0.147    0.246   32.428   51.707
 ot_scf_mini                        666 11.0    0.020    0.025   50.058   50.895
 yz_to_x                           4251 17.4    6.066    7.529   27.279   42.701
 init_scf_loop                       39  8.0    0.001    0.001   41.892   41.898
 multiply_cannon                  12506 14.9    1.439    1.577   33.576   35.918
 x_to_yz                           4915 17.4    8.830   10.377   30.584   35.877
 ot_mini                            666 12.0    0.005    0.005   33.407   34.228
 mp_waitall_1                   1717042 17.9   23.407   33.371   23.407   33.371
 init_scf_run                        37  7.0    0.001    0.002   31.447   31.646
 scf_env_initial_rho_setup           37  8.0    0.000    0.001   31.446   31.645
 wfi_extrapolate                     37  9.0    0.004    0.005   30.437   30.439
 multiply_cannon_loop             12506 15.9    1.819    2.475   27.687   29.833
 qs_ot_get_derivative               666 13.0    0.006    0.007   26.459   27.307
 -------------------------------------------------------------------------------

 The number of warnings for this run is : 1
 
 -------------------------------------------------------------------------------
  **** **** ******  **  PROGRAM ENDED AT                 2025-01-16 08:50:53.429
 ***** ** ***  *** **   PROGRAM RAN ON                               ubuntu-GPU2
 **    ****   ******    PROGRAM RAN BY                                       zkm
 ***** **    ** ** **   PROGRAM PROCESS ID                               3482024
  **** **  *******  **  PROGRAM STOPPED IN /home/zkm/CP2K/Generate_dataset/Jenni
                                           te/Elastic/elastic_cp2k/example/epsil
                                           onxz/neg
