 DBCSR| CPU Multiplication driver                                           XSMM (U)
 DBCSR| Multrec recursion limit                                              512 (U)
 DBCSR| Multiplication stack size                                           1000 (D)
 DBCSR| Maximum elements for images                                    UNLIMITED (U)
 DBCSR| Multiplicative factor virtual images                                   1 (U)
 DBCSR| Use multiplication densification                                       T (D)
 DBCSR| Multiplication size stacks                                             3 (U)
 DBCSR| Use memory pool for CPU allocation                                     F (U)
 DBCSR| Number of 3D layers                                               SINGLE (U)
 DBCSR| Use MPI memory allocation                                              F (U)
 DBCSR| Use RMA algorithm                                                      F (U)
 DBCSR| Use Communication thread                                               T (U)
 DBCSR| Communication thread load                                             83 (D)
 DBCSR| MPI: My process id                                                     0
 DBCSR| MPI: Number of processes                                              52
 DBCSR| OMP: Current number of threads                                         2
 DBCSR| OMP: Max number of threads                                             2
 DBCSR| Split modifier for TAS multiplication algorithm                  1.0E+00 (U)


  **** **** ******  **  PROGRAM STARTED AT               2025-01-16 05:18:46.766
 ***** ** ***  *** **   PROGRAM STARTED ON                           ubuntu-GPU2
 **    ****   ******    PROGRAM STARTED BY                                   zkm
 ***** **    ** ** **   PROGRAM PROCESS ID                               3479623
  **** **  *******  **  PROGRAM STARTED IN /home/zkm/CP2K/Generate_dataset/Jenni
                                           te/Elastic/elastic_cp2k/example/epsil
                                           onyy/pos

 CP2K| version string:                                       CP2K version 2024.3
 CP2K| source code revision number:                                  git:6712648
 CP2K| cp2kflags: omp libint fftw3 libxc libgrpp pexsi elpa parallel scalapack m
 CP2K|            pi_f08 cosma quip xsmm plumed2 spglib mkl sirius libvori libbq
 CP2K|            qb libvdwxc hdf5
 CP2K| is freely available from                            https://www.cp2k.org/
 CP2K| Program compiled at            2024年 10月 05日 星期六 13:00:57 CST
 CP2K| Program compiled on                                           ubuntu-GPU2
 CP2K| Program compiled for                                                local
 CP2K| Data directory path                       /home/zkm/CP2K/cp2k-2024.3/data
 CP2K| Input file name                                                geoopt.inp

 GLOBAL| Force Environment number                                              1
 GLOBAL| Basis set file name                                        BASIS_MOLOPT
 GLOBAL| Potential file name                                           POTENTIAL
 GLOBAL| MM Potential file name                                     MM_POTENTIAL
 GLOBAL| Coordinate file name                                          coord.xyz
 GLOBAL| Method name                                                        CP2K
 GLOBAL| Project name                                                     geoopt
 GLOBAL| Run type                                                        GEO_OPT
 GLOBAL| FFT library                                                       FFTW3
 GLOBAL| Diagonalization library                                            ELPA
 GLOBAL| DGEMM library                                                      BLAS
 GLOBAL| Minimum number of eigenvectors for ELPA usage                        16
 GLOBAL| Orthonormality check for eigenvectors                          DISABLED
 GLOBAL| Matrix multiplication library                                     COSMA
 GLOBAL| All-to-all communication in single precision                          F
 GLOBAL| FFTs using library dependent lengths                                  F
 GLOBAL| Grid backend                                                       AUTO
 GLOBAL| Global print level                                                  LOW
 GLOBAL| MPI I/O enabled                                                       T
 GLOBAL| Total number of message passing processes                            52
 GLOBAL| Number of threads for this process                                    2
 GLOBAL| This output is from process                                           0
 GLOBAL| Stack size for threads created by OpenMP (OMP_STACKSIZE)        default
 GLOBAL| CPU model name            Intel(R) Xeon(R) Platinum 8179M CPU @ 2.40GHz
 GLOBAL| CPUID                                                              1003

 MEMORY| system memory details [Kb]
 MEMORY|                        rank 0           min           max       average
 MEMORY| MemTotal            527974664     527974664     527974664     527974664
 MEMORY| MemFree             104643320     104643320     104643320     104643320
 MEMORY| Buffers               6978716       6978716       6978716       6978716
 MEMORY| Cached              241645020     241645020     241645020     241645020
 MEMORY| Slab                 39935540      39935540      39935540      39935540
 MEMORY| SReclaimable         37108896      37108896      37108896      37108896
 MEMORY| MemLikelyFree       390375952     390375952     390375952     390375952


 GENERATE|  Preliminary Number of Bonds generated:                             0
 GENERATE|  Achieved consistency in connectivity generation.

 *******************************************************************************
 *******************************************************************************
 **                                                                           **
 **     #####                         ##              ##                      **
 **    ##   ##            ##          ##              ##                      **
 **   ##     ##                       ##            ######                    **
 **   ##     ##  ##   ##  ##   #####  ##  ##   ####   ##    #####    #####    **
 **   ##     ##  ##   ##  ##  ##      ## ##   ##      ##   ##   ##  ##   ##   **
 **   ##  ## ##  ##   ##  ##  ##      ####     ###    ##   ######   ######    **
 **    ##  ###   ##   ##  ##  ##      ## ##      ##   ##   ##       ##        **
 **     #######   #####   ##   #####  ##  ##  ####    ##    #####   ##        **
 **           ##                                                    ##        **
 **                                                                           **
 **                                                ... make the atoms dance   **
 **                                                                           **
 **            Copyright (C) by CP2K developers group (2000-2024)             **
 **                      J. Chem. Phys. 152, 194103 (2020)                    **
 **                                                                           **
 *******************************************************************************


 TOTAL NUMBERS AND MAXIMUM NUMBERS

  Total number of            - Atomic kinds:                                   4
                             - Atoms:                                        138
                             - Shell sets:                                   138
                             - Shells:                                       620
                             - Primitive Cartesian functions:                696
                             - Cartesian basis functions:                   1554
                             - Spherical basis functions:                   1460

  Maximum angular momentum of- Orbital basis functions:                        2
                             - Local part of the GTH pseudopotential:          2
                             - Non-local part of the GTH pseudopotential:      3


 SCF PARAMETERS         Density guess:                                    ATOMIC
                        --------------------------------------------------------
                        max_scf:                                              25
                        max_scf_history:                                       0
                        max_diis:                                              4
                        --------------------------------------------------------
                        eps_scf:                                        1.00E-07
                        eps_scf_history:                                0.00E+00
                        eps_diis:                                       1.00E-01
                        eps_eigval:                                     1.00E-05
                        --------------------------------------------------------
                        level_shift [a.u.]:                             0.000000
                        --------------------------------------------------------
                        Outer loop SCF in use 
                        No variables optimised in outer loop
                        eps_scf                                         1.00E-07
                        max_scf                                               20
                        No outer loop optimization
                        step_size                                       5.00E-01

 BFGS| Use rational function optimization for step estimation:                NO
 BFGS| Use model Hessian for initial guess:                                  YES
 BFGS| Restart Hessian:                                                       NO
 BFGS| Trust radius:                                                       0.378

 *******************************************************************************
 ***                     STARTING GEOMETRY OPTIMIZATION                      ***
 ***                                   BFGS                                  ***
 *******************************************************************************

 Number of electrons:                                                        656
 Number of occupied orbitals:                                                328
 Number of molecular orbitals:                                               328

 Number of orbital functions:                                               1460
 Number of independent orbital functions:                                   1460

 Extrapolation method: initial_guess


 SCF WAVEFUNCTION OPTIMIZATION

  ----------------------------------- OT ---------------------------------------
  Minimizer      : DIIS                : direct inversion
                                         in the iterative subspace
                                         using   7 DIIS vectors
                                         safer DIIS on
  Preconditioner : FULL_KINETIC        : inversion of T + eS
  Precond_solver : DEFAULT
  stepsize       :    0.15000000                  energy_gap     :    0.20000000
  eps_taylor     :   0.10000E-15                  max_taylor     :             4
  ----------------------------------- OT ---------------------------------------

  Step     Update method      Time    Convergence         Total energy    Change
  ------------------------------------------------------------------------------
     1 OT DIIS     0.15E+00    1.1     0.01906325     -1710.2281005912 -1.71E+03
     2 OT DIIS     0.15E+00    1.7     0.01128630     -1728.7819969737 -1.86E+01
     3 OT DIIS     0.15E+00    1.7     0.00839978     -1737.8255030513 -9.04E+00
     4 OT DIIS     0.15E+00    2.1     0.00562816     -1746.3944659603 -8.57E+00
     5 OT DIIS     0.15E+00    1.7     0.00420702     -1750.7888026558 -4.39E+00
     6 OT DIIS     0.15E+00    1.7     0.00322849     -1753.7467333983 -2.96E+00
     7 OT DIIS     0.15E+00    1.7     0.00245543     -1755.9629939954 -2.22E+00
     8 OT DIIS     0.15E+00    2.0     0.00194016     -1757.3534451693 -1.39E+00
     9 OT DIIS     0.15E+00    1.7     0.00156929     -1758.2614112769 -9.08E-01
    10 OT DIIS     0.15E+00    1.7     0.00130292     -1758.9386356733 -6.77E-01
    11 OT DIIS     0.15E+00    1.7     0.00111094     -1759.3490619385 -4.10E-01
    12 OT DIIS     0.15E+00    2.0     0.00097887     -1759.6988136812 -3.50E-01
    13 OT DIIS     0.15E+00    1.7     0.00083873     -1759.9510454590 -2.52E-01
    14 OT DIIS     0.15E+00    1.7     0.00071273     -1760.1716463015 -2.21E-01
    15 OT DIIS     0.15E+00    2.1     0.00057304     -1760.3656388122 -1.94E-01
    16 OT DIIS     0.15E+00    2.0     0.00048701     -1760.4655210160 -9.99E-02
    17 OT DIIS     0.15E+00    1.7     0.00040188     -1760.5582681381 -9.27E-02
    18 OT DIIS     0.15E+00    1.7     0.00035149     -1760.6086020870 -5.03E-02
    19 OT DIIS     0.15E+00    1.8     0.00032134     -1760.6470017534 -3.84E-02
    20 OT DIIS     0.15E+00    2.1     0.00030125     -1760.6729027163 -2.59E-02
    21 OT DIIS     0.15E+00    1.7     0.00030171     -1760.6888737740 -1.60E-02
    22 OT DIIS     0.15E+00    1.7     0.00029725     -1760.6900213008 -1.15E-03
    23 OT SD       0.15E+00    1.7     0.00029803     -1760.6929122679 -2.89E-03
    24 OT SD       0.15E+00    2.0     0.00030076     -1760.6993184477 -6.41E-03
    25 OT SD       0.15E+00    1.7     0.00030441     -1760.7058531893 -6.53E-03

  Leaving inner SCF loop after reaching    25 steps.


  Electronic density on regular grids:       -655.9999999993        0.0000000007
  Core density on regular grids:              655.9999999997       -0.0000000003
  Total charge density on r-space grids:        0.0000000003
  Total charge density g-space grids:           0.0000000003

  Overlap energy of the core charge distribution:               0.00000058529192
  Self energy of the core charge distribution:              -4144.80997841715816
  Core Hamiltonian energy:                                   1116.35088060251064
  Hartree energy:                                            1614.65649085616224
  Exchange-correlation energy:                               -346.41320828926791
  Dispersion energy:                                           -0.49003852679865

  Total energy:                                             -1760.70585318926010

  outer SCF iter =    1 RMS gradient =   0.30E-03 energy =      -1760.7058531893

  ----------------------------------- OT ---------------------------------------
  Minimizer      : DIIS                : direct inversion
                                         in the iterative subspace
                                         using   7 DIIS vectors
                                         safer DIIS on
  Preconditioner : FULL_KINETIC        : inversion of T + eS
  Precond_solver : DEFAULT
  stepsize       :    0.15000000                  energy_gap     :    0.20000000
  eps_taylor     :   0.10000E-15                  max_taylor     :             4
  ----------------------------------- OT ---------------------------------------

  Step     Update method      Time    Convergence         Total energy    Change
  ------------------------------------------------------------------------------
     1 OT DIIS     0.15E+00    3.4     0.00056349     -1760.7125548491 -6.70E-03
     2 OT DIIS     0.15E+00    1.7     0.00049792     -1760.7336770764 -2.11E-02
     3 OT DIIS     0.15E+00    2.0     0.00045954     -1760.7658074603 -3.21E-02
     4 OT DIIS     0.15E+00    1.7     0.00045455     -1760.7903425716 -2.45E-02
     5 OT SD       0.15E+00    1.7     0.00045720     -1760.8031199818 -1.28E-02
     6 OT SD       0.15E+00    1.7     0.00046210     -1760.8182090551 -1.51E-02
     7 OT SD       0.15E+00    1.9     0.00046764     -1760.8336360233 -1.54E-02
     8 OT DIIS     0.15E+00    1.8     0.00047318     -1760.8494362340 -1.58E-02
     9 OT SD       0.15E+00    1.7     0.00054734     -1760.8700160838 -2.06E-02
    10 OT SD       0.15E+00    1.7     0.00053450     -1760.8911924678 -2.12E-02
    11 OT SD       0.15E+00    2.2     0.00052710     -1760.9115531575 -2.04E-02
    12 OT SD       0.15E+00    1.7     0.00052023     -1760.9313752343 -1.98E-02
    13 OT SD       0.15E+00    1.7     0.00051281     -1760.9506761665 -1.93E-02
    14 OT SD       0.15E+00    2.0     0.00050443     -1760.9694126365 -1.87E-02
    15 OT DIIS     0.15E+00    1.7     0.00049493     -1760.9875200683 -1.81E-02
    16 OT DIIS     0.15E+00    1.8     0.00021872     -1761.1996367180 -2.12E-01
    17 OT DIIS     0.15E+00    1.7     0.00016895     -1761.2199116952 -2.03E-02
    18 OT DIIS     0.15E+00    1.9     0.00012646     -1761.2174477176  2.46E-03
    19 OT DIIS     0.15E+00    1.7     0.00008924     -1761.2233917799 -5.94E-03
    20 OT DIIS     0.15E+00    1.7     0.00005487     -1761.2257850815 -2.39E-03
    21 OT DIIS     0.15E+00    1.7     0.00005205     -1761.2260682345 -2.83E-04
    22 OT DIIS     0.15E+00    1.9     0.00003560     -1761.2266124428 -5.44E-04
    23 OT DIIS     0.15E+00    1.7     0.00002848     -1761.2269659876 -3.54E-04
    24 OT DIIS     0.15E+00    1.8     0.00002337     -1761.2271558040 -1.90E-04
    25 OT DIIS     0.15E+00    1.7     0.00001820     -1761.2273269005 -1.71E-04

  Leaving inner SCF loop after reaching    25 steps.


  Electronic density on regular grids:       -655.9999999994        0.0000000006
  Core density on regular grids:              655.9999999997       -0.0000000003
  Total charge density on r-space grids:        0.0000000003
  Total charge density g-space grids:           0.0000000003

  Overlap energy of the core charge distribution:               0.00000058529192
  Self energy of the core charge distribution:              -4144.80997841715816
  Core Hamiltonian energy:                                   1116.35422500855611
  Hartree energy:                                            1614.38166995163942
  Exchange-correlation energy:                               -346.66320550205569
  Dispersion energy:                                           -0.49003852679865

  Total energy:                                             -1761.22732690052521

  outer SCF iter =    2 RMS gradient =   0.18E-04 energy =      -1761.2273269005

  ----------------------------------- OT ---------------------------------------
  Minimizer      : DIIS                : direct inversion
                                         in the iterative subspace
                                         using   7 DIIS vectors
                                         safer DIIS on
  Preconditioner : FULL_KINETIC        : inversion of T + eS
  Precond_solver : DEFAULT
  stepsize       :    0.15000000                  energy_gap     :    0.20000000
  eps_taylor     :   0.10000E-15                  max_taylor     :             4
  ----------------------------------- OT ---------------------------------------

  Step     Update method      Time    Convergence         Total energy    Change
  ------------------------------------------------------------------------------
     1 OT DIIS     0.15E+00    3.7     0.00002014     -1761.2274610090 -1.34E-04
     2 OT DIIS     0.15E+00    1.7     0.00001664     -1761.2274873567 -2.63E-05
     3 OT DIIS     0.15E+00    1.7     0.00001131     -1761.2275332541 -4.59E-05
     4 OT DIIS     0.15E+00    1.7     0.00000892     -1761.2275514050 -1.82E-05
     5 OT DIIS     0.15E+00    1.9     0.00000494     -1761.2275742641 -2.29E-05
     6 OT DIIS     0.15E+00    1.7     0.00000383     -1761.2275784082 -4.14E-06
     7 OT DIIS     0.15E+00    1.9     0.00000225     -1761.2275822557 -3.85E-06
     8 OT DIIS     0.15E+00    1.8     0.00000152     -1761.2275833746 -1.12E-06
     9 OT DIIS     0.15E+00    2.0     0.00000106     -1761.2275838138 -4.39E-07
    10 OT DIIS     0.15E+00    1.7     0.00000069     -1761.2275840454 -2.32E-07
    11 OT DIIS     0.15E+00    1.7     0.00000047     -1761.2275841407 -9.53E-08
    12 OT DIIS     0.15E+00    1.7     0.00000034     -1761.2275841766 -3.59E-08
    13 OT DIIS     0.15E+00    2.0     0.00000025     -1761.2275841948 -1.82E-08
    14 OT DIIS     0.15E+00    1.7     0.00000019     -1761.2275842044 -9.61E-09
    15 OT DIIS     0.15E+00    1.7     0.00000014     -1761.2275842098 -5.46E-09
    16 OT DIIS     0.15E+00    1.7     0.00000011     -1761.2275842130 -3.19E-09
    17 OT DIIS     0.15E+00    2.0     0.00000008     -1761.2275842146 -1.52E-09

  *** SCF run converged in    17 steps ***


  Electronic density on regular grids:       -655.9999999993        0.0000000007
  Core density on regular grids:              655.9999999997       -0.0000000003
  Total charge density on r-space grids:        0.0000000003
  Total charge density g-space grids:           0.0000000003

  Overlap energy of the core charge distribution:               0.00000058529192
  Self energy of the core charge distribution:              -4144.80997841715816
  Core Hamiltonian energy:                                   1116.35535328842798
  Hartree energy:                                            1614.38058952827851
  Exchange-correlation energy:                               -346.66351067259711
  Dispersion energy:                                           -0.49003852679865

  Total energy:                                             -1761.22758421455569

  outer SCF iter =    3 RMS gradient =   0.84E-07 energy =      -1761.2275842146
  outer SCF loop converged in   3 iterations or   67 steps


 ENERGY| Total FORCE_EVAL ( QS ) energy [a.u.]:            -1761.227584215577963

 ATOMIC FORCES in [a.u.]

 # Atom   Kind   Element          X              Y              Z
      1      1      Ca         -0.00188423    -0.00422428    -0.00229960
      2      1      Ca         -0.00006318    -0.00017390    -0.00017544
      3      1      Ca         -0.00013524    -0.00031997     0.00001821
      4      1      Ca          0.00097804    -0.00749200    -0.00027652
      5      2      Si          0.00005088    -0.00065115     0.00048938
      6      2      Si          0.00118369    -0.00690012    -0.00626566
      7      2      Si          0.00144551    -0.00174857    -0.00080988
      8      3      O          -0.01051670    -0.02129053    -0.00413295
      9      3      O           0.00297326    -0.00157552    -0.00023726
     10      3      O          -0.00381490    -0.00611130     0.00006155
     11      3      O           0.00138715     0.00211798     0.00349162
     12      3      O           0.01671520    -0.03385369    -0.00839386
     13      3      O           0.00052944     0.00360045     0.00029467
     14      3      O          -0.00119317     0.00558197     0.00043844
     15      3      O           0.00125255     0.00314571    -0.00004569
     16      3      O          -0.00062961    -0.00060669     0.00030384
     17      3      O           0.00042150     0.00239972     0.00131344
     18      3      O           0.00175928    -0.00048930    -0.00002141
     19      3      O           0.00068924     0.00032039    -0.00096165
     20      3      O          -0.00047046    -0.00173279    -0.00015758
     21      3      O           0.00470299    -0.00716746    -0.00228925
     22      3      O          -0.00421995    -0.01087680     0.00517319
     23      3      O           0.00150128    -0.00319323    -0.00166528
     24      1      Ca         -0.00025144    -0.00041046    -0.00083254
     25      1      Ca          0.00103678    -0.00861304    -0.00531556
     26      1      Ca          0.00075579    -0.00543256    -0.00090516
     27      1      Ca          0.00035227     0.00037131    -0.00031875
     28      2      Si          0.00284631    -0.04338066    -0.01381771
     29      2      Si         -0.00067223     0.00047705    -0.00068257
     30      2      Si         -0.00212415     0.00112782    -0.00746255
     31      3      O          -0.00171616     0.00043997     0.00019761
     32      3      O          -0.00102603    -0.00264100     0.00088747
     33      3      O          -0.00246867    -0.00213647     0.00023108
     34      3      O          -0.00035086     0.00195646     0.00089247
     35      3      O           0.00189985    -0.00097289     0.00027981
     36      3      O          -0.00119764    -0.00924794     0.00246661
     37      3      O           0.00107999    -0.00128527     0.00111963
     38      3      O          -0.00091976    -0.00611874    -0.00328072
     39      3      O          -0.00018501     0.00026376     0.00074609
     40      3      O           0.00061495    -0.00327661     0.00150253
     41      3      O          -0.00094291     0.00217941     0.00039028
     42      3      O           0.00090155    -0.00048612     0.00016366
     43      3      O           0.00205941     0.00099170     0.00093968
     44      3      O           0.00068013     0.00008600    -0.00028252
     45      3      O           0.00168577     0.00100360    -0.00109993
     46      3      O          -0.00151041     0.00638901     0.00202225
     47      1      Ca         -0.00076324     0.00195816     0.00151971
     48      1      Ca          0.00026154    -0.00010757     0.00103939
     49      1      Ca         -0.00112002     0.00872270     0.00527670
     50      1      Ca         -0.00159102     0.00742729     0.00018360
     51      1      Ca         -0.00030361    -0.00050554     0.00030571
     52      2      Si         -0.00259046     0.04601442     0.01233690
     53      2      Si          0.00055430    -0.00071854     0.00065298
     54      2      Si          0.00212324    -0.00124628     0.00675562
     55      3      O          -0.00102882    -0.00062449    -0.00067955
     56      3      O           0.00052849     0.00314731     0.00015974
     57      3      O          -0.00226179    -0.00027025    -0.00026364
     58      3      O           0.00223532     0.00060218    -0.00084241
     59      3      O           0.00219856     0.00065229    -0.00072485
     60      3      O           0.00238758     0.01056018    -0.00234700
     61      3      O          -0.00076412     0.00263136    -0.00159374
     62      3      O           0.00084220     0.00554271     0.00318116
     63      3      O          -0.00042848    -0.00045489    -0.00033265
     64      3      O           0.00067758     0.00413661    -0.00045069
     65      3      O           0.00144612    -0.00090222    -0.00122538
     66      3      O          -0.00114160     0.00055928    -0.00087209
     67      3      O          -0.00013651     0.00018699    -0.00000345
     68      3      O           0.00068370    -0.00103374     0.00112105
     69      3      O           0.00003938    -0.00177884     0.00089663
     70      3      O           0.00037458    -0.00438259    -0.00262489
     71      1      Ca          0.00176156     0.00379503     0.00248209
     72      1      Ca          0.00011008     0.00018672     0.00013259
     73      1      Ca          0.00019147     0.00055635    -0.00023191
     74      1      Ca         -0.00118360     0.00575811    -0.00021893
     75      2      Si          0.00025859     0.00041475    -0.00051435
     76      2      Si         -0.00053160     0.00766036     0.00572920
     77      2      Si         -0.00127780     0.00169727     0.00052138
     78      3      O           0.01066851     0.02079169     0.00624031
     79      3      O           0.00125702     0.00143225     0.00006754
     80      3      O           0.00227302     0.00241119    -0.00032922
     81      3      O          -0.00290676    -0.00048732    -0.00298271
     82      3      O          -0.01636888     0.03066479     0.00969359
     83      3      O           0.00144237    -0.00165991     0.00008671
     84      3      O           0.00143049    -0.00344183    -0.00002457
     85      3      O           0.00089127    -0.00220116    -0.00079736
     86      3      O           0.00346179     0.00123615    -0.00034551
     87      3      O           0.00338107    -0.00066925    -0.00034617
     88      3      O          -0.00153623     0.00155298    -0.00074402
     89      3      O           0.00159658    -0.00092223     0.00048938
     90      3      O           0.00328286     0.00733050     0.00036634
     91      3      O          -0.00395438     0.00564502     0.00059661
     92      3      O           0.00191202     0.00737840    -0.00454832
     93      3      O          -0.00061764     0.00558136     0.00278222
     94      1      Ca          0.00004833     0.00112671    -0.00169888
     95      4      H           0.00145782     0.00038996     0.00087912
     96      4      H          -0.00071900    -0.00126110     0.00163001
     97      4      H           0.00188489     0.00162710     0.00033228
     98      4      H          -0.00234554     0.00275390     0.00102832
     99      4      H           0.00310092     0.00558743    -0.00332905
    100      4      H           0.00103728    -0.00471283    -0.00103415
    101      4      H          -0.00048029     0.00054354     0.00094557
    102      4      H           0.00025726    -0.00009165     0.00016756
    103      4      H          -0.00011669    -0.00066177    -0.00026682
    104      4      H          -0.00036707    -0.00006699    -0.00025776
    105      4      H          -0.00027855    -0.00031044     0.00011547
    106      4      H           0.00009305    -0.00025123     0.00005066
    107      4      H          -0.00011787     0.00004399    -0.00008287
    108      4      H          -0.00067456    -0.00109517     0.00028297
    109      4      H          -0.00015138     0.00004972    -0.00031228
    110      4      H           0.00117133    -0.00110026    -0.00028566
    111      4      H           0.00012694     0.00076339     0.00018873
    112      4      H          -0.00003856     0.00036619     0.00002639
    113      4      H           0.00018651     0.00049265     0.00001242
    114      4      H          -0.00010293     0.00020796    -0.00014385
    115      4      H           0.00044224     0.00034623    -0.00037745
    116      4      H           0.00069903    -0.00041326    -0.00062847
    117      4      H          -0.00061836     0.00026061     0.00037701
    118      4      H           0.00030545    -0.00021272     0.00033060
    119      4      H          -0.00057558     0.00021142    -0.00084273
    120      4      H          -0.00274407    -0.00025872    -0.00068349
    121      4      H          -0.00110213    -0.00041770    -0.00053603
    122      4      H           0.00225348    -0.00286067    -0.00072011
    123      4      H          -0.00061391     0.00398474     0.00080580
    124      4      H          -0.00252459    -0.00443936     0.00256957
    125      4      H          -0.00016513     0.00008909    -0.00007615
    126      4      H           0.00087255    -0.00085563    -0.00074249
    127      4      H          -0.00003230     0.00001810     0.00000337
    128      4      H          -0.00014189    -0.00002587    -0.00005957
    129      4      H           0.00000704     0.00006527    -0.00005607
    130      4      H          -0.00087983    -0.00030714    -0.00045205
    131      4      H           0.00024583    -0.00043330    -0.00072681
    132      4      H          -0.00018782     0.00033347     0.00006810
    133      4      H           0.00077782     0.00023397     0.00022629
    134      4      H          -0.00017877     0.00047720     0.00061702
    135      4      H           0.00046521     0.00018149     0.00033246
    136      4      H           0.00003080     0.00003104    -0.00005621
    137      4      H           0.00002200    -0.00005519     0.00000143
    138      4      H          -0.00022881     0.00057701     0.00006600
 SUM OF ATOMIC FORCES           0.02107492     0.01580211    -0.00104457     0.02636190

 STRESS| Analytical stress tensor [GPa]
 STRESS|                        x                   y                   z
 STRESS|      x       -7.91286003313E-01   5.58175402157E-02   3.39535387704E-02
 STRESS|      y        5.58175402157E-02  -1.62946910583E+00  -1.43826772659E-01
 STRESS|      z        3.39535387704E-02  -1.43826772659E-01  -3.70003131097E-01
 STRESS| 1/3 Trace                                            -9.30252746748E-01
 STRESS| Determinant                                          -4.58218398526E-01

 STRESS| Eigenvectors and eigenvalues of the analytical stress tensor [GPa]
 STRESS|                        1                   2                   3
 STRESS| Eigenvalues  -1.64977962939E+00  -7.88921977452E-01  -3.52056633403E-01
 STRESS|      x          -0.068922224500      0.995640745443      0.062842923098
 STRESS|      y           0.991176413172      0.075490035569     -0.108952156937
 STRESS|      z           0.113221221250     -0.054779198090      0.992058564055

 OPT| **************************************************************************
 OPT| Step number                                                              0
 OPT| Optimization method                                                   BFGS
 OPT| Total energy [hartree]                                    -1761.2275842156
 OPT| Used time [s]                                                      124.426
 OPT| **************************************************************************
 OPT| Estimated peak process memory [MiB]                                    449

 --------------------------
 OPTIMIZATION STEP:      1
 --------------------------

 Number of electrons:                                                        656
 Number of occupied orbitals:                                                328
 Number of molecular orbitals:                                               328

 Number of orbital functions:                                               1460
 Number of independent orbital functions:                                   1460

 Extrapolation method: ASPC


 SCF WAVEFUNCTION OPTIMIZATION

  ----------------------------------- OT ---------------------------------------
  Minimizer      : DIIS                : direct inversion
                                         in the iterative subspace
                                         using   7 DIIS vectors
                                         safer DIIS on
  Preconditioner : FULL_KINETIC        : inversion of T + eS
  Precond_solver : DEFAULT
  stepsize       :    0.15000000                  energy_gap     :    0.20000000
  eps_taylor     :   0.10000E-15                  max_taylor     :             4
  ----------------------------------- OT ---------------------------------------

  Step     Update method      Time    Convergence         Total energy    Change
  ------------------------------------------------------------------------------
     1 OT DIIS     0.15E+00    1.1     0.00025824     -1761.2334638954 -1.76E+03
     2 OT DIIS     0.15E+00    1.9     0.00016737     -1761.2373206779 -3.86E-03
     3 OT DIIS     0.15E+00    1.7     0.00009515     -1761.2402411483 -2.92E-03
     4 OT DIIS     0.15E+00    1.7     0.00005248     -1761.2417108874 -1.47E-03
     5 OT DIIS     0.15E+00    1.7     0.00003445     -1761.2421951473 -4.84E-04
     6 OT DIIS     0.15E+00    1.9     0.00002375     -1761.2424105311 -2.15E-04
     7 OT DIIS     0.15E+00    1.7     0.00001490     -1761.2425295374 -1.19E-04
     8 OT DIIS     0.15E+00    1.7     0.00000944     -1761.2425742008 -4.47E-05
     9 OT DIIS     0.15E+00    1.7     0.00000650     -1761.2425890258 -1.48E-05
    10 OT DIIS     0.15E+00    2.0     0.00000423     -1761.2425965390 -7.51E-06
    11 OT DIIS     0.15E+00    1.7     0.00000282     -1761.2425997967 -3.26E-06
    12 OT DIIS     0.15E+00    1.7     0.00000193     -1761.2426012408 -1.44E-06
    13 OT DIIS     0.15E+00    1.7     0.00000130     -1761.2426019474 -7.07E-07
    14 OT DIIS     0.15E+00    2.0     0.00000086     -1761.2426022729 -3.26E-07
    15 OT DIIS     0.15E+00    1.7     0.00000062     -1761.2426023999 -1.27E-07
    16 OT DIIS     0.15E+00    1.7     0.00000043     -1761.2426024680 -6.82E-08
    17 OT DIIS     0.15E+00    1.7     0.00000032     -1761.2426024964 -2.84E-08
    18 OT DIIS     0.15E+00    2.1     0.00000024     -1761.2426025114 -1.50E-08
    19 OT DIIS     0.15E+00    1.7     0.00000018     -1761.2426025212 -9.79E-09
    20 OT DIIS     0.15E+00    1.7     0.00000013     -1761.2426025258 -4.67E-09
    21 OT DIIS     0.15E+00    1.7     0.00000010     -1761.2426025286 -2.75E-09
    22 OT DIIS     0.15E+00    1.9     0.00000007     -1761.2426025303 -1.69E-09

  *** SCF run converged in    22 steps ***


  Electronic density on regular grids:       -655.9999999994        0.0000000006
  Core density on regular grids:              655.9999999997       -0.0000000003
  Total charge density on r-space grids:        0.0000000003
  Total charge density g-space grids:           0.0000000003

  Overlap energy of the core charge distribution:               0.00000058608553
  Self energy of the core charge distribution:              -4144.80997841715816
  Core Hamiltonian energy:                                   1116.43182774875299
  Hartree energy:                                            1614.31336188368709
  Exchange-correlation energy:                               -346.68773734068554
  Dispersion energy:                                           -0.49007699094758

  Total energy:                                             -1761.24260253026569

  outer SCF iter =    1 RMS gradient =   0.74E-07 energy =      -1761.2426025303
  outer SCF loop converged in   1 iterations or   22 steps


 ENERGY| Total FORCE_EVAL ( QS ) energy [a.u.]:            -1761.242602531161083

 ATOMIC FORCES in [a.u.]

 # Atom   Kind   Element          X              Y              Z
      1      1      Ca          0.00109130     0.00067227     0.00107902
      2      1      Ca          0.00078844    -0.00078644     0.00011195
      3      1      Ca          0.00062276     0.00028881     0.00060143
      4      1      Ca         -0.00179605    -0.00064094     0.00126340
      5      2      Si         -0.00014395     0.00079656     0.00138523
      6      2      Si          0.00110306     0.00147127     0.00005818
      7      2      Si         -0.00200403     0.00075542     0.00094460
      8      3      O          -0.01212843    -0.00168943    -0.00842808
      9      3      O          -0.00039023     0.00029728    -0.00022597
     10      3      O          -0.00313855    -0.00304074     0.00107430
     11      3      O           0.00223355    -0.00242509    -0.00165146
     12      3      O           0.01972056    -0.02028726    -0.00750159
     13      3      O           0.00054283     0.00239908    -0.00115115
     14      3      O          -0.00120441     0.00054695    -0.00070047
     15      3      O           0.00005564     0.00043510     0.00082174
     16      3      O           0.00067405    -0.00183376     0.00027482
     17      3      O           0.00073513     0.00136326     0.00000994
     18      3      O          -0.00042675    -0.00329103    -0.00057140
     19      3      O           0.00044334    -0.00205854     0.00001957
     20      3      O          -0.00027547     0.00029789    -0.00101980
     21      3      O          -0.00107165    -0.00153711    -0.00038891
     22      3      O           0.00046221    -0.00420332     0.00287165
     23      3      O           0.00025411    -0.00176283     0.00032412
     24      1      Ca         -0.00010362    -0.00041498     0.00023191
     25      1      Ca         -0.00115325    -0.00123283     0.00027601
     26      1      Ca          0.00070301     0.00004174    -0.00064731
     27      1      Ca          0.00021201    -0.00068495    -0.00073875
     28      2      Si          0.00395886    -0.01531266    -0.01039036
     29      2      Si         -0.00034995     0.00101775    -0.00103745
     30      2      Si         -0.00052370    -0.00203354     0.00020919
     31      3      O          -0.00049397     0.00025727    -0.00000744
     32      3      O          -0.00083800    -0.00363279    -0.00077543
     33      3      O          -0.00105104    -0.00083976     0.00104484
     34      3      O           0.00010441    -0.00055279    -0.00034199
     35      3      O           0.00055661    -0.00182374     0.00008527
     36      3      O           0.00105007    -0.00350376    -0.00057589
     37      3      O          -0.00016148    -0.00311074     0.00066313
     38      3      O          -0.00037939    -0.00655486    -0.00086697
     39      3      O           0.00067334    -0.00142281    -0.00122630
     40      3      O          -0.00090203     0.00076599    -0.00290303
     41      3      O           0.00044374    -0.00116080    -0.00047643
     42      3      O          -0.00049297    -0.00008757    -0.00042894
     43      3      O          -0.00006958     0.00017522    -0.00047217
     44      3      O           0.00082229     0.00033991    -0.00006099
     45      3      O           0.00113843    -0.00019284    -0.00020664
     46      3      O          -0.00019279    -0.00010725    -0.00023126
     47      1      Ca          0.00028244     0.00117761    -0.00124726
     48      1      Ca         -0.00032432     0.00028434    -0.00059658
     49      1      Ca          0.00106397     0.00003146     0.00003700
     50      1      Ca         -0.00033043     0.00019255     0.00141736
     51      1      Ca          0.00005260     0.00068991     0.00014574
     52      2      Si         -0.00423500     0.01837931     0.01002152
     53      2      Si          0.00122411     0.00080151     0.00003145
     54      2      Si          0.00084124     0.00082051     0.00005814
     55      3      O           0.00044332    -0.00027104    -0.00033137
     56      3      O           0.00160584     0.00167757     0.00106218
     57      3      O          -0.00102077     0.00048120    -0.00045743
     58      3      O           0.00100076     0.00179642     0.00295972
     59      3      O           0.00089485    -0.00042596    -0.00109700
     60      3      O          -0.00142742     0.00151050    -0.00007673
     61      3      O           0.00025927     0.00216706    -0.00074820
     62      3      O           0.00176284     0.00660607     0.00248732
     63      3      O          -0.00060235     0.00257407     0.00097065
     64      3      O           0.00266802     0.00299376     0.00224939
     65      3      O           0.00018788     0.00074989     0.00033345
     66      3      O           0.00078054     0.00125565     0.00005562
     67      3      O          -0.00051990    -0.00004149    -0.00019191
     68      3      O          -0.00014060    -0.00037400     0.00000739
     69      3      O           0.00065006     0.00021824     0.00011502
     70      3      O          -0.00017812    -0.00027226    -0.00089586
     71      1      Ca         -0.00187341    -0.00045353    -0.00196981
     72      1      Ca         -0.00072649     0.00017517    -0.00007876
     73      1      Ca          0.00025847     0.00004340    -0.00121338
     74      1      Ca          0.00108243     0.00093622    -0.00171752
     75      2      Si          0.00069883     0.00026655     0.00026400
     76      2      Si          0.00069215     0.00011639    -0.00042062
     77      2      Si          0.00116091    -0.00156325    -0.00098093
     78      3      O           0.01281955     0.00287966     0.00667601
     79      3      O          -0.00030794     0.00180774     0.00001712
     80      3      O           0.00124140     0.00193489    -0.00171486
     81      3      O          -0.00058814     0.00307507     0.00315047
     82      3      O          -0.01971711     0.01675380     0.00597921
     83      3      O           0.00090953     0.00092119     0.00022464
     84      3      O           0.00038633    -0.00027613     0.00111071
     85      3      O          -0.00016214    -0.00090833    -0.00025218
     86      3      O           0.00138481     0.00152226     0.00061011
     87      3      O          -0.00083123     0.00122573     0.00016683
     88      3      O          -0.00044375     0.00161798     0.00056243
     89      3      O           0.00063195     0.00306933    -0.00007599
     90      3      O           0.00141753     0.00163704    -0.00153639
     91      3      O          -0.00099252     0.00265160     0.00127990
     92      3      O           0.00020384     0.00304703    -0.00206275
     93      3      O           0.00073241     0.00208132    -0.00045094
     94      1      Ca          0.00003871    -0.00059564     0.00121145
     95      4      H           0.00018447    -0.00110210     0.00071423
     96      4      H           0.00006689    -0.00115517     0.00135234
     97      4      H           0.00186991    -0.00048207    -0.00109278
     98      4      H           0.00110851     0.00061437     0.00087877
     99      4      H          -0.00016608     0.00011727    -0.00067324
    100      4      H           0.00004578    -0.00106561    -0.00111462
    101      4      H           0.00023012     0.00016345    -0.00001709
    102      4      H          -0.00034769    -0.00031677    -0.00037252
    103      4      H           0.00057824     0.00074762    -0.00075288
    104      4      H           0.00043121    -0.00028382     0.00068855
    105      4      H          -0.00007669    -0.00034091     0.00002076
    106      4      H           0.00027120    -0.00001835     0.00004448
    107      4      H          -0.00005023     0.00014605    -0.00000274
    108      4      H           0.00009239     0.00014392    -0.00031052
    109      4      H           0.00019621     0.00070991     0.00030083
    110      4      H          -0.00075345     0.00205978    -0.00022318
    111      4      H           0.00024316     0.00039272     0.00029215
    112      4      H           0.00031525     0.00031532     0.00000867
    113      4      H           0.00023225    -0.00010473     0.00023558
    114      4      H           0.00035125    -0.00016220     0.00036231
    115      4      H           0.00009778    -0.00050389     0.00019526
    116      4      H           0.00063034    -0.00036402    -0.00056885
    117      4      H           0.00066650    -0.00114350    -0.00054767
    118      4      H          -0.00064595    -0.00001229    -0.00016267
    119      4      H           0.00047331     0.00305254    -0.00109494
    120      4      H           0.00009209     0.00142762     0.00133644
    121      4      H          -0.00133485    -0.00033844     0.00054646
    122      4      H           0.00025524    -0.00109140    -0.00126962
    123      4      H          -0.00085934     0.00064440     0.00107489
    124      4      H           0.00037069     0.00032745     0.00012303
    125      4      H           0.00049980     0.00087121     0.00087842
    126      4      H           0.00033410     0.00080722    -0.00024197
    127      4      H           0.00032978    -0.00045136    -0.00001880
    128      4      H          -0.00005486    -0.00044244    -0.00031014
    129      4      H           0.00045303     0.00000199     0.00025744
    130      4      H           0.00076326    -0.00085370    -0.00005036
    131      4      H          -0.00025597     0.00072356     0.00100138
    132      4      H          -0.00025060    -0.00041038     0.00009817
    133      4      H          -0.00085037     0.00050801     0.00029537
    134      4      H           0.00045225    -0.00025836    -0.00082303
    135      4      H          -0.00039137    -0.00038638     0.00007482
    136      4      H           0.00033311     0.00012066    -0.00001252
    137      4      H          -0.00009505     0.00073634     0.00014858
    138      4      H           0.00066006    -0.00021664     0.00000498
 SUM OF ATOMIC FORCES           0.01854911     0.01381181    -0.00331381     0.02336273

 STRESS| Analytical stress tensor [GPa]
 STRESS|                        x                   y                   z
 STRESS|      x       -7.12491114438E-01   1.85749722579E-01   2.26070727081E-02
 STRESS|      y        1.85749722579E-01  -1.46819762703E+00  -7.98834663553E-02
 STRESS|      z        2.26070727081E-02  -7.98834663553E-02  -5.09157344672E-01
 STRESS| 1/3 Trace                                            -8.96615362048E-01
 STRESS| Determinant                                          -5.10424609467E-01

 STRESS| Eigenvectors and eigenvalues of the analytical stress tensor [GPa]
 STRESS|                        1                   2                   3
 STRESS| Eigenvalues  -1.51820148396E+00  -6.69394406951E-01  -5.02250195237E-01
 STRESS|      x          -0.226075705271      0.973231011495      0.041366335960
 STRESS|      y           0.970659859742      0.228642639759     -0.074444475754
 STRESS|      z           0.081909780689     -0.023322554501      0.996366823152

 OPT| **************************************************************************
 OPT| Step number                                                              1
 OPT| Optimization method                                                   BFGS
 OPT| Total energy [hartree]                                    -1761.2426025312
 OPT| Effective energy change [hartree]                            -0.0150183156
 OPT| Predicted energy change [hartree]                            -0.0127688120
 OPT| Scaling factor                                                0.0000000000
 OPT| Step size                                                     0.1367839488
 OPT| Trust radius                                                  0.3779452266
 OPT| Decrease in energy                                                     YES
 OPT| Used time [s]                                                       42.511
 OPT|
 OPT| Maximum step size                                             0.1367839488
 OPT| Convergence limit for maximum step size                       0.0030000000
 OPT| Maximum step size is converged                                          NO
 OPT|
 OPT| RMS step size                                                 0.0204170391
 OPT| Convergence limit for RMS step size                           0.0015000000
 OPT| RMS step size is converged                                              NO
 OPT|
 OPT| Maximum gradient                                              0.0202872633
 OPT| Convergence limit for maximum gradient                        0.0004500000
 OPT| Maximum gradient is converged                                           NO
 OPT|
 OPT| RMS gradient                                                  0.0028493900
 OPT| Convergence limit for RMS gradient                            0.0003000000
 OPT| RMS gradient is converged                                               NO
 OPT| **************************************************************************
 OPT| Estimated peak process memory after this step [MiB]                    509

 --------------------------
 OPTIMIZATION STEP:      2
 --------------------------

 Number of electrons:                                                        656
 Number of occupied orbitals:                                                328
 Number of molecular orbitals:                                               328

 Number of orbital functions:                                               1460
 Number of independent orbital functions:                                   1460

 Extrapolation method: ASPC


 SCF WAVEFUNCTION OPTIMIZATION

  ----------------------------------- OT ---------------------------------------
  Minimizer      : DIIS                : direct inversion
                                         in the iterative subspace
                                         using   7 DIIS vectors
                                         safer DIIS on
  Preconditioner : FULL_KINETIC        : inversion of T + eS
  Precond_solver : DEFAULT
  stepsize       :    0.15000000                  energy_gap     :    0.20000000
  eps_taylor     :   0.10000E-15                  max_taylor     :             4
  ----------------------------------- OT ---------------------------------------

  Step     Update method      Time    Convergence         Total energy    Change
  ------------------------------------------------------------------------------
     1 OT DIIS     0.15E+00    1.3     0.00024749     -1761.2394653706 -1.76E+03
     2 OT DIIS     0.15E+00    1.7     0.00016143     -1761.2430173481 -3.55E-03
     3 OT DIIS     0.15E+00    1.7     0.00009197     -1761.2457542788 -2.74E-03
     4 OT DIIS     0.15E+00    1.7     0.00004904     -1761.2471495535 -1.40E-03
     5 OT DIIS     0.15E+00    2.0     0.00003279     -1761.2475573580 -4.08E-04
     6 OT DIIS     0.15E+00    1.7     0.00002236     -1761.2477523141 -1.95E-04
     7 OT DIIS     0.15E+00    2.0     0.00001406     -1761.2478550051 -1.03E-04
     8 OT DIIS     0.15E+00    1.7     0.00000886     -1761.2478935598 -3.86E-05
     9 OT DIIS     0.15E+00    1.9     0.00000604     -1761.2479064381 -1.29E-05
    10 OT DIIS     0.15E+00    1.7     0.00000387     -1761.2479130238 -6.59E-06
    11 OT DIIS     0.15E+00    1.7     0.00000258     -1761.2479157135 -2.69E-06
    12 OT DIIS     0.15E+00    1.7     0.00000177     -1761.2479169249 -1.21E-06
    13 OT DIIS     0.15E+00    1.9     0.00000121     -1761.2479175077 -5.83E-07
    14 OT DIIS     0.15E+00    1.7     0.00000081     -1761.2479177915 -2.84E-07
    15 OT DIIS     0.15E+00    1.8     0.00000058     -1761.2479179064 -1.15E-07
    16 OT DIIS     0.15E+00    1.7     0.00000041     -1761.2479179658 -5.94E-08
    17 OT DIIS     0.15E+00    1.9     0.00000030     -1761.2479179914 -2.55E-08
    18 OT DIIS     0.15E+00    1.7     0.00000022     -1761.2479180051 -1.37E-08
    19 OT DIIS     0.15E+00    1.7     0.00000016     -1761.2479180134 -8.33E-09
    20 OT DIIS     0.15E+00    1.7     0.00000012     -1761.2479180173 -3.89E-09
    21 OT DIIS     0.15E+00    1.8     0.00000009     -1761.2479180196 -2.30E-09

  *** SCF run converged in    21 steps ***


  Electronic density on regular grids:       -655.9999999994        0.0000000006
  Core density on regular grids:              655.9999999997       -0.0000000003
  Total charge density on r-space grids:        0.0000000003
  Total charge density g-space grids:           0.0000000003

  Overlap energy of the core charge distribution:               0.00000059114350
  Self energy of the core charge distribution:              -4144.80997841715816
  Core Hamiltonian energy:                                   1116.54363610270161
  Hartree energy:                                            1614.22635076526490
  Exchange-correlation energy:                               -346.71781686393194
  Dispersion energy:                                           -0.49011019762856

  Total energy:                                             -1761.24791801960896

  outer SCF iter =    1 RMS gradient =   0.92E-07 energy =      -1761.2479180196
  outer SCF loop converged in   1 iterations or   21 steps


 ENERGY| Total FORCE_EVAL ( QS ) energy [a.u.]:            -1761.247918021044597

 ATOMIC FORCES in [a.u.]

 # Atom   Kind   Element          X              Y              Z
      1      1      Ca          0.00049801     0.00037521    -0.00029082
      2      1      Ca          0.00060290     0.00015643    -0.00024598
      3      1      Ca          0.00065260    -0.00036598    -0.00027239
      4      1      Ca         -0.00138691     0.00091875    -0.00004567
      5      2      Si          0.00009581     0.00010298     0.00035743
      6      2      Si          0.00195101     0.00286262     0.00272134
      7      2      Si         -0.00104196     0.00009398     0.00011419
      8      3      O          -0.00330665     0.00309647    -0.00014024
      9      3      O          -0.00075639     0.00045317     0.00034962
     10      3      O          -0.00107408    -0.00061656    -0.00008785
     11      3      O          -0.00004821    -0.00086502     0.00129316
     12      3      O           0.00499285    -0.00635067    -0.00253188
     13      3      O          -0.00085765    -0.00003876    -0.00010710
     14      3      O           0.00118507    -0.00275742    -0.00167276
     15      3      O          -0.00019660     0.00020438     0.00039204
     16      3      O           0.00124307    -0.00125110    -0.00019938
     17      3      O           0.00004390    -0.00008033    -0.00057436
     18      3      O           0.00106590    -0.00253890     0.00031505
     19      3      O           0.00082218    -0.00191832     0.00051254
     20      3      O           0.00059715     0.00043782    -0.00000233
     21      3      O          -0.00054262     0.00032408     0.00069043
     22      3      O           0.00078231     0.00793668    -0.00351069
     23      3      O           0.00012529    -0.00030518     0.00084362
     24      1      Ca         -0.00001970    -0.00048456    -0.00033554
     25      1      Ca         -0.00080503     0.00181693     0.00210329
     26      1      Ca         -0.00049075     0.00100665    -0.00000373
     27      1      Ca         -0.00013023    -0.00090769     0.00024565
     28      2      Si          0.00140607    -0.00560978    -0.00570077
     29      2      Si         -0.00026254     0.00041660    -0.00051131
     30      2      Si          0.00135249    -0.00199003     0.00299817
     31      3      O           0.00028819     0.00018862    -0.00106974
     32      3      O           0.00157922     0.00178468    -0.00068928
     33      3      O           0.00061210    -0.00002887     0.00008629
     34      3      O          -0.00001911    -0.00125872    -0.00003419
     35      3      O          -0.00012433    -0.00185610     0.00016163
     36      3      O           0.00107424     0.00298820    -0.00247357
     37      3      O          -0.00031507    -0.00246301     0.00009150
     38      3      O           0.00076686     0.00121002     0.00024078
     39      3      O           0.00130585    -0.00014060    -0.00075472
     40      3      O          -0.00064488     0.00027657     0.00027580
     41      3      O           0.00052158    -0.00050351    -0.00054909
     42      3      O          -0.00047198     0.00006818    -0.00045229
     43      3      O           0.00053207    -0.00034660     0.00040545
     44      3      O           0.00030385    -0.00026141     0.00062320
     45      3      O           0.00053899    -0.00075057     0.00019306
     46      3      O           0.00125118    -0.00115578    -0.00166530
     47      1      Ca          0.00095291    -0.00148445    -0.00065600
     48      1      Ca          0.00036953     0.00149461     0.00018938
     49      1      Ca          0.00095170    -0.00250821    -0.00183947
     50      1      Ca          0.00099433    -0.00083139    -0.00025479
     51      1      Ca          0.00066471     0.00103276    -0.00037276
     52      2      Si          0.00107683     0.00635525     0.00394779
     53      2      Si         -0.00064498     0.00052973    -0.00008964
     54      2      Si         -0.00206071     0.00232407    -0.00298000
     55      3      O           0.00091105     0.00080467     0.00030845
     56      3      O           0.00092556     0.00134861     0.00148995
     57      3      O          -0.00009206    -0.00069429     0.00005630
     58      3      O           0.00020046    -0.00021474     0.00000137
     59      3      O           0.00110011     0.00017386    -0.00036634
     60      3      O          -0.00140341    -0.00009122     0.00132125
     61      3      O           0.00201299     0.00134427     0.00056944
     62      3      O          -0.00295496    -0.00015521    -0.00130978
     63      3      O           0.00154344     0.00237129     0.00156956
     64      3      O           0.00102814    -0.00100904     0.00066749
     65      3      O          -0.00023126     0.00091894     0.00064027
     66      3      O           0.00116337     0.00082206     0.00080134
     67      3      O          -0.00035271     0.00005398     0.00019340
     68      3      O          -0.00000889    -0.00026070    -0.00005274
     69      3      O           0.00028670     0.00025572     0.00006071
     70      3      O          -0.00013671     0.00047391     0.00142478
     71      1      Ca          0.00005261    -0.00049950    -0.00013313
     72      1      Ca         -0.00025481     0.00032510     0.00042644
     73      1      Ca          0.00039138     0.00133222     0.00060930
     74      1      Ca          0.00152666    -0.00071555     0.00013531
     75      2      Si         -0.00012681    -0.00008836     0.00089379
     76      2      Si         -0.00331240    -0.00257001    -0.00206709
     77      2      Si          0.00055630     0.00020747    -0.00007407
     78      3      O           0.00432035     0.00012831     0.00216926
     79      3      O          -0.00153578     0.00190431    -0.00077578
     80      3      O          -0.00015067    -0.00041597     0.00118340
     81      3      O          -0.00000952     0.00097805    -0.00071565
     82      3      O          -0.00395468     0.00198365     0.00288457
     83      3      O           0.00128049     0.00046330    -0.00031252
     84      3      O          -0.00024076     0.00379649     0.00112260
     85      3      O          -0.00017386     0.00013967    -0.00012259
     86      3      O          -0.00198765    -0.00108155    -0.00067011
     87      3      O          -0.00011461    -0.00045264    -0.00052621
     88      3      O          -0.00021997    -0.00012074    -0.00012039
     89      3      O           0.00019359    -0.00008717    -0.00045951
     90      3      O          -0.00001465    -0.00286484     0.00089767
     91      3      O           0.00089715     0.00136978    -0.00019502
     92      3      O          -0.00025498    -0.00340375     0.00045626
     93      3      O           0.00040286    -0.00195114    -0.00195669
     94      1      Ca         -0.00024591     0.00131719     0.00027733
     95      4      H          -0.00023297    -0.00117244    -0.00005784
     96      4      H          -0.00079824    -0.00095119     0.00091851
     97      4      H           0.00021127    -0.00017679    -0.00106280
     98      4      H           0.00125222    -0.00153239    -0.00014690
     99      4      H          -0.00045898    -0.00553265     0.00277958
    100      4      H          -0.00025434    -0.00082876     0.00045607
    101      4      H           0.00035328    -0.00091608    -0.00009057
    102      4      H          -0.00043597    -0.00071808    -0.00050243
    103      4      H          -0.00009294     0.00011327    -0.00044917
    104      4      H           0.00062901     0.00054066    -0.00011317
    105      4      H           0.00026854    -0.00019140    -0.00003266
    106      4      H           0.00034648     0.00005657     0.00009874
    107      4      H           0.00029826    -0.00005420    -0.00002096
    108      4      H           0.00063754     0.00084614    -0.00060008
    109      4      H           0.00038844    -0.00073450    -0.00077544
    110      4      H          -0.00198701     0.00240884     0.00217962
    111      4      H           0.00024690     0.00015154     0.00014771
    112      4      H           0.00004553     0.00008049     0.00000912
    113      4      H           0.00015201     0.00024358     0.00008106
    114      4      H           0.00019218    -0.00023004     0.00020838
    115      4      H           0.00037562    -0.00059808     0.00024677
    116      4      H           0.00075593    -0.00020826    -0.00045395
    117      4      H           0.00154177    -0.00088483    -0.00214690
    118      4      H          -0.00104579     0.00094253     0.00020152
    119      4      H           0.00052637     0.00243440    -0.00098584
    120      4      H           0.00223866     0.00297798     0.00042637
    121      4      H          -0.00095866    -0.00040356     0.00096673
    122      4      H          -0.00085611     0.00070740    -0.00064271
    123      4      H          -0.00100210     0.00042603     0.00005228
    124      4      H           0.00102202     0.00409165    -0.00159880
    125      4      H           0.00106480     0.00114596     0.00047623
    126      4      H           0.00004100     0.00193836     0.00045912
    127      4      H           0.00042688    -0.00055635    -0.00011154
    128      4      H           0.00002186    -0.00114890    -0.00085663
    129      4      H           0.00011210    -0.00051653     0.00007211
    130      4      H           0.00095841    -0.00125191     0.00023669
    131      4      H          -0.00038275     0.00011232     0.00052233
    132      4      H          -0.00007982    -0.00047772    -0.00009132
    133      4      H          -0.00063090     0.00058072     0.00021282
    134      4      H           0.00037030     0.00000513    -0.00064748
    135      4      H          -0.00018397     0.00025242     0.00019198
    136      4      H           0.00023422     0.00052591     0.00046386
    137      4      H          -0.00053316     0.00079138     0.00061225
    138      4      H           0.00065197     0.00020054    -0.00016439
 SUM OF ATOMIC FORCES           0.02244639     0.00711153    -0.00019130     0.02354678

 STRESS| Analytical stress tensor [GPa]
 STRESS|                        x                   y                   z
 STRESS|      x       -5.19107975597E-01   2.10296385852E-01   5.76317358435E-02
 STRESS|      y        2.10296385852E-01  -1.34424606240E+00  -6.85887708346E-02
 STRESS|      z        5.76317358435E-02  -6.85887708346E-02  -5.31093810027E-01
 STRESS| 1/3 Trace                                            -7.98149282674E-01
 STRESS| Determinant                                          -3.41870220197E-01

 STRESS| Eigenvectors and eigenvalues of the analytical stress tensor [GPa]
 STRESS|                        1                   2                   3
 STRESS| Eigenvalues  -1.40214103203E+00  -5.44610255522E-01  -4.47696560471E-01
 STRESS|      x          -0.236361029368     -0.432041642963      0.870329525262
 STRESS|      y           0.967318335160     -0.189256727042      0.168751680678
 STRESS|      z           0.091807964026      0.881772028370      0.462654717610

 OPT| **************************************************************************
 OPT| Step number                                                              2
 OPT| Optimization method                                                   BFGS
 OPT| Total energy [hartree]                                    -1761.2479180210
 OPT| Effective energy change [hartree]                            -0.0053154899
 OPT| Predicted energy change [hartree]                            -0.0048816586
 OPT| Scaling factor                                                0.0000000000
 OPT| Step size                                                     0.0627135501
 OPT| Trust radius                                                  0.3779452266
 OPT| Decrease in energy                                                     YES
 OPT| Used time [s]                                                       41.125
 OPT|
 OPT| Maximum step size                                             0.0627135501
 OPT| Convergence limit for maximum step size                       0.0030000000
 OPT| Maximum step size is converged                                          NO
 OPT|
 OPT| RMS step size                                                 0.0141569858
 OPT| Convergence limit for RMS step size                           0.0015000000
 OPT| RMS step size is converged                                              NO
 OPT|
 OPT| Maximum gradient                                              0.0079366760
 OPT| Convergence limit for maximum gradient                        0.0004500000
 OPT| Maximum gradient is converged                                           NO
 OPT|
 OPT| RMS gradient                                                  0.0013947149
 OPT| Convergence limit for RMS gradient                            0.0003000000
 OPT| RMS gradient is converged                                               NO
 OPT| **************************************************************************
 OPT| Estimated peak process memory after this step [MiB]                    509

 --------------------------
 OPTIMIZATION STEP:      3
 --------------------------

 Number of electrons:                                                        656
 Number of occupied orbitals:                                                328
 Number of molecular orbitals:                                               328

 Number of orbital functions:                                               1460
 Number of independent orbital functions:                                   1460

 Extrapolation method: ASPC


 SCF WAVEFUNCTION OPTIMIZATION

  ----------------------------------- OT ---------------------------------------
  Minimizer      : DIIS                : direct inversion
                                         in the iterative subspace
                                         using   7 DIIS vectors
                                         safer DIIS on
  Preconditioner : FULL_KINETIC        : inversion of T + eS
  Precond_solver : DEFAULT
  stepsize       :    0.15000000                  energy_gap     :    0.20000000
  eps_taylor     :   0.10000E-15                  max_taylor     :             4
  ----------------------------------- OT ---------------------------------------

  Step     Update method      Time    Convergence         Total energy    Change
  ------------------------------------------------------------------------------
     1 OT DIIS     0.15E+00    1.0     0.00022102     -1761.2428743334 -1.76E+03
     2 OT DIIS     0.15E+00    2.0     0.00014543     -1761.2457247575 -2.85E-03
     3 OT DIIS     0.15E+00    1.7     0.00007989     -1761.2479938687 -2.27E-03
     4 OT DIIS     0.15E+00    1.7     0.00004240     -1761.2490345891 -1.04E-03
     5 OT DIIS     0.15E+00    2.0     0.00002749     -1761.2493435140 -3.09E-04
     6 OT DIIS     0.15E+00    1.9     0.00001870     -1761.2494765521 -1.33E-04
     7 OT DIIS     0.15E+00    1.7     0.00001175     -1761.2495455432 -6.90E-05
     8 OT DIIS     0.15E+00    1.7     0.00000749     -1761.2495713085 -2.58E-05
     9 OT DIIS     0.15E+00    1.7     0.00000513     -1761.2495804080 -9.10E-06
    10 OT DIIS     0.15E+00    1.9     0.00000330     -1761.2495851680 -4.76E-06
    11 OT DIIS     0.15E+00    1.7     0.00000218     -1761.2495871712 -2.00E-06
    12 OT DIIS     0.15E+00    1.7     0.00000149     -1761.2495880488 -8.78E-07
    13 OT DIIS     0.15E+00    1.7     0.00000102     -1761.2495884594 -4.11E-07
    14 OT DIIS     0.15E+00    1.9     0.00000068     -1761.2495886645 -2.05E-07
    15 OT DIIS     0.15E+00    1.7     0.00000048     -1761.2495887430 -7.85E-08
    16 OT DIIS     0.15E+00    1.7     0.00000033     -1761.2495887836 -4.06E-08
    17 OT DIIS     0.15E+00    1.7     0.00000024     -1761.2495888011 -1.75E-08
    18 OT DIIS     0.15E+00    2.0     0.00000018     -1761.2495888104 -9.27E-09
    19 OT DIIS     0.15E+00    1.7     0.00000013     -1761.2495888159 -5.49E-09
    20 OT DIIS     0.15E+00    1.7     0.00000010     -1761.2495888183 -2.43E-09

  *** SCF run converged in    20 steps ***


  Electronic density on regular grids:       -655.9999999993        0.0000000007
  Core density on regular grids:              655.9999999997       -0.0000000003
  Total charge density on r-space grids:        0.0000000003
  Total charge density g-space grids:           0.0000000003

  Overlap energy of the core charge distribution:               0.00000059220496
  Self energy of the core charge distribution:              -4144.80997841715816
  Core Hamiltonian energy:                                   1116.57638962987630
  Hartree energy:                                            1614.19998127586246
  Exchange-correlation energy:                               -346.72586172990475
  Dispersion energy:                                           -0.49012016922550

  Total energy:                                             -1761.24958881834482

  outer SCF iter =    1 RMS gradient =   0.98E-07 energy =      -1761.2495888183
  outer SCF loop converged in   1 iterations or   20 steps


 ENERGY| Total FORCE_EVAL ( QS ) energy [a.u.]:            -1761.249588819777273

 ATOMIC FORCES in [a.u.]

 # Atom   Kind   Element          X              Y              Z
      1      1      Ca          0.00056496     0.00009615     0.00067098
      2      1      Ca          0.00052034     0.00003839     0.00027293
      3      1      Ca          0.00004548    -0.00005188     0.00001139
      4      1      Ca          0.00080854     0.00036403    -0.00042660
      5      2      Si          0.00035450     0.00061464    -0.00007121
      6      2      Si         -0.00081225     0.00034504     0.00233425
      7      2      Si         -0.00011492     0.00011927     0.00070184
      8      3      O           0.00209439     0.00061987     0.00076931
      9      3      O           0.00056247    -0.00023579    -0.00029561
     10      3      O           0.00058715     0.00000567     0.00016077
     11      3      O          -0.00067491    -0.00025338    -0.00049602
     12      3      O          -0.00201730     0.00359272     0.00090476
     13      3      O          -0.00052604    -0.00115668     0.00000692
     14      3      O           0.00196487    -0.00175494    -0.00101131
     15      3      O           0.00009563    -0.00019881    -0.00000691
     16      3      O           0.00117815    -0.00037568    -0.00054085
     17      3      O           0.00027264    -0.00068517    -0.00049942
     18      3      O          -0.00037311     0.00213398     0.00021740
     19      3      O           0.00103018    -0.00073579     0.00024910
     20      3      O           0.00025066    -0.00052241     0.00047054
     21      3      O           0.00009134    -0.00000044     0.00038037
     22      3      O           0.00112574     0.00260047    -0.00240742
     23      3      O          -0.00042913    -0.00043557     0.00041645
     24      1      Ca          0.00020108     0.00016356    -0.00011926
     25      1      Ca          0.00035448     0.00091707     0.00082772
     26      1      Ca         -0.00008870     0.00081895     0.00051598
     27      1      Ca          0.00007536     0.00008788    -0.00002145
     28      2      Si         -0.00233611     0.00090066     0.00059658
     29      2      Si         -0.00038008    -0.00067437    -0.00010109
     30      2      Si          0.00015061    -0.00054406     0.00250212
     31      3      O           0.00048224     0.00084770    -0.00050060
     32      3      O          -0.00002347     0.00143517     0.00021206
     33      3      O           0.00069133    -0.00002253    -0.00015487
     34      3      O          -0.00025034    -0.00090102    -0.00051442
     35      3      O           0.00038391    -0.00035984     0.00010909
     36      3      O           0.00179319     0.00310221    -0.00333811
     37      3      O           0.00003125    -0.00025653     0.00013363
     38      3      O           0.00061233     0.00087152     0.00218525
     39      3      O           0.00013080    -0.00022722     0.00081114
     40      3      O           0.00059754    -0.00087139     0.00012515
     41      3      O          -0.00020008     0.00004875     0.00031907
     42      3      O          -0.00021747    -0.00003540     0.00050069
     43      3      O           0.00013542    -0.00058613     0.00033868
     44      3      O           0.00030125     0.00004986     0.00031989
     45      3      O          -0.00002914    -0.00066310     0.00041383
     46      3      O           0.00089153    -0.00261735     0.00012605
     47      1      Ca          0.00051168    -0.00090597    -0.00053740
     48      1      Ca         -0.00005813    -0.00005397    -0.00017242
     49      1      Ca          0.00040108     0.00039808    -0.00095203
     50      1      Ca          0.00080278     0.00009534    -0.00051980
     51      1      Ca          0.00018368    -0.00017008     0.00035161
     52      2      Si          0.00018861     0.00111033    -0.00009635
     53      2      Si          0.00052348     0.00027787    -0.00024417
     54      2      Si         -0.00086361     0.00213902    -0.00158563
     55      3      O           0.00103474    -0.00005994     0.00030929
     56      3      O          -0.00094051     0.00004880     0.00108213
     57      3      O           0.00006443     0.00075571    -0.00074836
     58      3      O          -0.00003136    -0.00005836     0.00030597
     59      3      O          -0.00056417     0.00034605    -0.00021444
     60      3      O          -0.00090360    -0.00283487     0.00315262
     61      3      O           0.00025014    -0.00041801    -0.00000947
     62      3      O          -0.00008158    -0.00107365    -0.00246109
     63      3      O           0.00178578    -0.00122724    -0.00139844
     64      3      O           0.00052014     0.00000345    -0.00004180
     65      3      O           0.00035743     0.00131457     0.00007692
     66      3      O           0.00103474     0.00102905     0.00007856
     67      3      O          -0.00005350     0.00032862     0.00019435
     68      3      O           0.00006151     0.00004433     0.00018243
     69      3      O           0.00030056    -0.00000697    -0.00020647
     70      3      O          -0.00070247     0.00240160     0.00085668
     71      1      Ca         -0.00058891    -0.00013168    -0.00003279
     72      1      Ca         -0.00054399    -0.00018187     0.00011028
     73      1      Ca         -0.00002357     0.00007578     0.00009276
     74      1      Ca          0.00021366    -0.00014763     0.00095268
     75      2      Si         -0.00058518    -0.00076172     0.00011807
     76      2      Si          0.00094088    -0.00127918    -0.00212226
     77      2      Si          0.00124050    -0.00115523    -0.00104116
     78      3      O           0.00033597    -0.00115572    -0.00112091
     79      3      O          -0.00035995     0.00016038    -0.00022653
     80      3      O          -0.00094773    -0.00004164     0.00010568
     81      3      O          -0.00028951    -0.00027197     0.00046702
     82      3      O           0.00167257    -0.00328814    -0.00022058
     83      3      O           0.00027408     0.00060236     0.00046327
     84      3      O          -0.00054853     0.00071273     0.00005684
     85      3      O           0.00029921     0.00052503    -0.00011948
     86      3      O          -0.00045541     0.00100647     0.00002846
     87      3      O          -0.00130099     0.00060848     0.00040045
     88      3      O          -0.00022060    -0.00034097     0.00011818
     89      3      O          -0.00000473    -0.00065227     0.00010664
     90      3      O          -0.00053804    -0.00107903     0.00185008
     91      3      O           0.00015943     0.00005238    -0.00063408
     92      3      O          -0.00092591    -0.00220921     0.00107208
     93      3      O           0.00078806    -0.00089203    -0.00068022
     94      1      Ca          0.00008538     0.00066157    -0.00009828
     95      4      H          -0.00022905    -0.00031832    -0.00056592
     96      4      H          -0.00075793    -0.00047732     0.00046186
     97      4      H           0.00003445    -0.00020445    -0.00009942
     98      4      H           0.00086462    -0.00155062    -0.00041362
[...]
 flops   421 x    32 x    62          44168760320       0.0%    100.0%      0.0%     
 flops    96 x    32 x    50          45232128000       0.0%    100.0%      0.0%     
 flops     5 x    32 x     5          46123264000       0.0%    100.0%      0.0%     
 flops     5 x    13 x    32          48271308800       0.0%    100.0%      0.0%     
 flops    13 x     5 x    32          48271308800       0.0%    100.0%      0.0%     
 flops   104 x    32 x    50          49001472000       0.0%    100.0%      0.0%     
 flops   390 x    32 x    50          49495680000       0.0%    100.0%      0.0%     
 flops    64 x    32 x    62          49855856640       0.0%    100.0%      0.0%     
 flops    14 x    32 x     5          52832102400       0.0%    100.0%      0.0%     
 flops     5 x    32 x    14          52832102400       0.0%    100.0%      0.0%     
 flops   313 x    32 x    57          52832196480       0.0%    100.0%      0.0%     
 flops   421 x    32 x    50          53429952000       0.0%    100.0%      0.0%     
 flops    14 x    13 x    32          55292590080       0.0%    100.0%      0.0%     
 flops    13 x    14 x    32          55292590080       0.0%    100.0%      0.0%     
 flops   336 x    32 x    57          56714434560       0.0%    100.0%      0.0%     
 flops    96 x    32 x    57          60158730240       0.0%    100.0%      0.0%     
 flops    64 x    32 x    50          60309504000       0.0%    100.0%      0.0%     
 flops    14 x    32 x    14          60516771840       0.0%    100.0%      0.0%     
 flops   104 x    32 x    57          65171957760       0.0%    100.0%      0.0%     
 flops   390 x    32 x    57          65829254400       0.0%    100.0%      0.0%     
 flops    96 x    32 x    32          67180953600       0.0%    100.0%      0.0%     
 flops   421 x    32 x    57          71061836160       0.0%    100.0%      0.0%     
 flops   104 x    32 x    32          72779366400       0.0%    100.0%      0.0%     
 flops    64 x    32 x    57          80211640320       0.0%    100.0%      0.0%     
 flops    64 x    32 x    32          89574604800       0.0%    100.0%      0.0%     
 flops   313 x    32 x    32         194807193600       0.0%    100.0%      0.0%     
 flops     5 x    32 x    13         207135385600       0.0%    100.0%      0.0%     
 flops    13 x    32 x     5         207135385600       0.0%    100.0%      0.0%     
 flops   336 x    32 x    32         209122099200       0.0%    100.0%      0.0%     
 flops    13 x    13 x    32         219634455040       0.0%    100.0%      0.0%     
 flops    14 x    32 x    13         237264168960       0.0%    100.0%      0.0%     
 flops    13 x    32 x    14         237264168960       0.0%    100.0%      0.0%     
 flops   390 x    32 x    32         242731008000       0.0%    100.0%      0.0%     
 flops   421 x    32 x    32         262025011200       0.0%    100.0%      0.0%     
 flops    13 x    32 x    13         930226186240       0.0%    100.0%      0.0%     
 flops inhomo. stacks                788144029920     100.0%      0.0%      0.0%
 flops total                         5.656004E+12      13.9%     86.1%      0.0%
 flops max/rank                    265.493976E+09      15.0%     85.0%      0.0%
 matmuls inhomo. stacks                   1233540     100.0%      0.0%      0.0%
 matmuls total                          391885318       0.3%     99.7%      0.0%
 number of processed stacks              25364284       4.9%     95.1%      0.0%
 average stack size                                     1.0      16.2       0.0
 marketing flops                     5.967346E+12
 -------------------------------------------------------------------------------
 # multiplications                          11830
 max memory usage/rank             534.528000E+06
 # max total images/rank                       13
 # max 3D layers                                1
 # MPI messages exchanged                23376080
 MPI messages size (bytes):
  total size                         1.612896E+12
  min size                           0.000000E+00
  max size                         381.680000E+03
  average size                      68.997719E+03
 MPI breakdown and total messages size (bytes):
             size <=      128            11140658                        0
       128 < size <=     8192              919342               6054675968
      8192 < size <=    32768             1548330              21595046400
     32768 < size <=   131072             5087250             315573024000
    131072 < size <=  4194304             4680500            1268950240000
   4194304 < size <= 16777216                   0                        0
  16777216 < size                               0                        0
 -------------------------------------------------------------------------------

 *** WARNING in dbcsr_mm.F:301 :: Using a non-square number of MPI ranks ***
 *** might lead to poor performance. Used ranks: 52 Suggested: 49 100    ***

 -------------------------------------------------------------------------------
 -                                                                             -
 -                      DBCSR MESSAGE PASSING PERFORMANCE                      -
 -                                                                             -
 -------------------------------------------------------------------------------
 ROUTINE             CALLS      AVE VOLUME [Bytes]
 MP_Bcast              113                     12.
 MP_Allreduce        63772                      9.
 MP_Alltoall         40903                  23862.
 MP_ISend          1066486                  31830.
 MP_IRecv          1030774                  31620.
 -------------------------------------------------------------------------------

 -------------------------------------------------------------------------------
 -                                                                             -
 -                                DBM STATISTICS                               -
 -                                                                             -
 -------------------------------------------------------------------------------
    M  x    N  x    K                                          COUNT     PERCENT
 -------------------------------------------------------------------------------

 -------------------------------------------------------------------------------
 -                                                                             -
 -                                GRID STATISTICS                              -
 -                                                                             -
 -------------------------------------------------------------------------------
 LP    KERNEL             BACKEND                              COUNT     PERCENT
 3     collocate general  CPU                               68707703      22.39%
 4     collocate general  CPU                               65857607      21.46%
 3     integrate general  CPU                               65205479      21.25%
 4     integrate general  CPU                               62259990      20.29%
 2     collocate general  CPU                               18723932       6.10%
 2     integrate general  CPU                               17701100       5.77%
 6     integrate general  CPU                                3649129       1.19%
 7     integrate general  CPU                                3497683       1.14%
 5     integrate general  CPU                                 994416       0.32%
 0     collocate general  CPU                                 258336       0.08%
 -------------------------------------------------------------------------------

 MEMORY| Estimated peak process memory [MiB]                                 510

 -------------------------------------------------------------------------------
 -                                                                             -
 -                         MESSAGE PASSING PERFORMANCE                         -
 -                                                                             -
 -------------------------------------------------------------------------------

 ROUTINE             CALLS      AVE VOLUME [Bytes]
 MP_Group                4
 MP_Bcast             4681                 163277.
 MP_Allreduce        16094                    374.
 MP_Sync                87
 MP_Alltoall         15647                2721061.
 MP_SendRecv        107967                  64809.
 MP_ISendRecv       100674                  68832.
 MP_Wait            195058
 MP_comm_split          48
 MP_ISend            86056                 237201.
 MP_IRecv            86056                 237200.
 -------------------------------------------------------------------------------


 -------------------------------------------------------------------------------
 -                                                                             -
 -                           R E F E R E N C E S                               -
 -                                                                             -
 -------------------------------------------------------------------------------
 
 CP2K version 2024.3, the CP2K developers group (2024).
 CP2K is freely available from https://www.cp2k.org/ .
 
 T. D. Kuehne, M. Iannuzzi, M. Del Ben, V. V. Rybkin, P. Seewald, F. Stein, T. 
 Laino, R. Z. Khaliullin, O. Schuett, F. Schiffmann, D. Golze, J. Wilhelm, S. 
 Chulkov, M. H. Bani-Hashemian, V. Weber, U. Borstnik, M. Taillefumier, A. S. 
 Jakobovits, A. Lazzaro, H. Pabst, T. Mueller, R. Schade, M. Guidon, S. 
 Andermatt, N. Holmberg, G. K. Schenter, A. Hehn, A. Bussy, F. Belleflamme, G. 
 Tabacchi, A. Gloess, M. Lass, I. Bethune, C. J. Mundy, C. Plessl, M. Watkins, 
 J. VandeVondele, M. Krack, J. Hutter.
 J. Chem. Phys. 152, 194103 (2020).
 CP2K: An electronic structure and molecular dynamics software package - 
 Quickstep: Efficient and accurate electronic structure calculations.
 https://doi.org/10.1063/5.0007045

 L. Goerigk, A. Hansen, C. Bauer, S. Ehrlich, A. Najibi, S. Grimme.
 Phys. Chem. Chem. Phys. 19, 32184-32215 (2017).
 A look at the density functional theory zoo with the advanced GMTKN55 database 
 for general main group thermochemistry, kinetics and noncovalent interactions.
 https://doi.org/10.1039/C7CP04913G

 O. Schuett, P. Messmer, J. Hutter, J. VandeVondele.
 Electronic Structure Calculations on Graphics Processing Units, 173-190 (2016).
 GPU-Accelerated Sparse Matrix-Matrix Multiplication for Linear Scaling Density 
 Functional Theory.
 https://doi.org/10.1002/9781118670712.ch8

 A. Heinecke, G. Henry, M. Hutchinson, H. Pabst.
 Proceedings of Intl. Supercomputing Conference, 981-991 (2016).
 LIBXSMM: Accelerating Small Matrix Multiplications by Runtime Code Generation.
 https://doi.org/10.1109/SC.2016.83

 J. Hutter, M. Iannuzzi, F. Schiffmann, J. VandeVondele.
 WIREs Comput Mol Sci. 4, 15-25 (2014).
 CP2K: atomistic simulations of condensed matter systems.
 https://doi.org/10.1002/wcms.1159

 U. Borstnik, J. VandeVondele, V. Weber, J. Hutter.
 Parallel Comput. 40, 47-58 (2014).
 Sparse matrix multiplication: The distributed block-compressed sparse row 
 library.
 https://doi.org/10.1016/j.parco.2014.03.012

 A. Marek, V. Blum, R. Johanni, V. Havu, B. Lang, T. Auckenthaler, A. Heinecke, 
 H. Bungartz, H. Lederer.
 J. Phys. Condens. Matter 26, 213201 (2014).
 The ELPA library: scalable parallel eigenvalue solutions for electronic 
 structure theory and computational science.
 https://doi.org/10.1088/0953-8984/26/21/213201

 S. Grimme, S. Ehrlich, L. Goerigk.
 J. Comput. Chem. 32, 1456 (2011).
 Effect of the damping function in dispersion corrected density functional 
 theory.
 https://doi.org/10.1002/jcc.21759

 S. Grimme, J. Antony, S. Ehrlich, H. Krieg.
 J. Chem. Phys. 132, 154104 (2010).
 A consistent and accurate ab initio parametrization of density functional 
 dispersion correction (DFT-D) for the 94 elements H-Pu.
 https://doi.org/10.1063/1.3382344

 J. P. Perdew, A. Ruzsinszky, G. I. Csonka, O. A. Vydrov, G. E. Scuseria, L. A. 
 Constantin, X. Zhou, K. Burke.
 Phys. Rev. Lett. 100, 136406-136409 (2008).
 Restoring the Density-Gradient Expansion for Exchange in Solids and Surfaces.
 https://doi.org/10.1103/PhysRevLett.100.136406

 J. VandeVondele, J. Hutter.
 J. Chem. Phys. 127, 114105 (2007).
 Gaussian basis sets for accurate calculations on molecular systems in gas and 
 condensed phases.
 https://doi.org/10.1063/1.2770708

 T. D. Kühne, M. Krack, F. R. Mohamed, M. Parrinello.
 Phys. Rev. Lett. 98, 066401 (2007).
 Efficient and accurate Car-Parrinello-like approach to Born-Oppenheimer 
 molecular dynamics.
 https://doi.org/10.1103/PhysRevLett.98.066401

 J. VandeVondele, M. Krack, F. Mohamed, M. Parrinello, T. Chassaing, J. Hutter.
 Comput. Phys. Commun. 167, 103-128 (2005).
 QUICKSTEP: Fast and accurate density functional calculations using a mixed 
 Gaussian and plane waves approach.
 https://doi.org/10.1016/j.cpc.2004.12.014

 M. Krack.
 Theor. Chem. Acc. 114, 145-152 (2005).
 Pseudopotentials for H to Kr optimized for gradient-corrected 
 exchange-correlation functionals.
 https://doi.org/10.1007/s00214-005-0655-y

 M. Frigo, S. G. Johnson.
 Proc. IEEE 93, 216-231 (2005).
 The design and implementation of FFTW3.
 https://doi.org/10.1109/JPROC.2004.840301

 J. Kolafa.
 J. Comput. Chem. 25, 335-342 (2004).
 Time-reversible always stable predictor-corrector method for molecular dynamics 
 of polarizable molecules.
 https://doi.org/10.1002/jcc.10385

 J. VandeVondele, J. Hutter.
 J. Chem. Phys. 118, 4365-4369 (2003).
 An efficient orbital transformation method for electronic structure 
 calculations.
 https://doi.org/10.1063/1.1543154

 C. Hartwigsen, S. Goedecker, J. Hutter.
 Phys. Rev. B 58, 3641-3662 (1998).
 Relativistic separable dual-space Gaussian pseudopotentials from H to Rn.
 https://doi.org/10.1103/PhysRevB.58.3641

 G. Lippert, J. Hutter, M. Parrinello.
 Mol. Phys. 92, 477-487 (1997).
 A hybrid Gaussian and plane wave density functional scheme.
 https://doi.org/10.1080/002689797170220

 S. Goedecker, M. Teter, J. Hutter.
 Phys. Rev. B 54, 1703-1710 (1996).
 Separable dual-space Gaussian pseudopotentials.
 https://doi.org/10.1103/PhysRevB.54.1703

 J. P. Perdew, K. Burke, M. Ernzerhof.
 Phys. Rev. Lett. 77, 3865-3868 (1996).
 Generalized gradient approximation made simple.
 https://doi.org/10.1103/PhysRevLett.77.3865


 -------------------------------------------------------------------------------
 -                                                                             -
 -                                T I M I N G                                  -
 -                                                                             -
 -------------------------------------------------------------------------------
 SUBROUTINE                       CALLS  ASD         SELF TIME        TOTAL TIME
                                MAXIMUM       AVERAGE  MAXIMUM  AVERAGE  MAXIMUM
 CP2K                                 1  1.0    0.012    0.013 1213.930 1213.931
 cp_geo_opt                           1  2.0    0.000    0.000 1213.594 1213.596
 geoopt_bfgs                          1  3.0    0.013    0.017 1213.594 1213.595
 cp_eval_at                          36  4.0    0.006    0.022 1212.447 1212.460
 qs_forces                           35  5.0    0.008    0.012 1189.061 1189.065
 qs_energies                         36  6.0    0.003    0.004 1120.403 1120.421
 scf_env_do_scf                      36  7.0    0.002    0.004 1075.231 1075.236
 scf_env_do_scf_inner_loop          623  8.0    0.016    0.078 1037.209 1037.377
 rebuild_ks_matrix                  658  9.8    0.003    0.003  643.047  643.600
 qs_ks_build_kohn_sham_matrix       658 10.8    0.123    0.133  643.044  643.597
 qs_ks_update_qs_env                661  9.0    0.005    0.007  575.696  576.229
 sum_up_and_integrate               658 11.8    0.017    0.029  486.432  486.787
 integrate_v_rspace                 658 12.8    0.032    0.057  485.932  486.448
 qs_rho_update_rho_low              659  9.0    0.003    0.004  471.715  472.063
 calculate_rho_elec                 659 10.0    0.342    0.406  471.711  472.060
 grid_integrate_task_list           658 13.8  385.804  399.691  385.804  399.691
 grid_collocate_task_list           659 11.0  389.172  399.365  389.172  399.365
 fft_wrap_pw1pw2                  11227 14.2    0.478    0.533  136.873  144.086
 fft_wrap_pw1pw2_250               7276 15.6    6.941    7.299  128.740  134.673
 qs_vxc_create                      658 11.8    0.035    0.041  115.790  118.112
 xc_vxc_pw_create                   658 12.8    2.896    3.439  115.755  118.083
 fft3d_ps                         11227 16.2   53.954   61.049  105.080  113.216
 density_rs2pw                      659 11.0    0.063    0.075   80.593   95.976
 xc_pw_derive                      3948 14.8    0.105    0.131   83.754   91.989
 potential_pw2rs                    658 13.8    0.083    0.104   76.667   76.905
 transfer_rs2pw                    2672 12.0    0.048    0.065   54.793   69.700
 qs_ks_update_qs_env_forces          35  6.0    0.000    0.000   67.677   68.060
 mp_waitany                       86056 15.2   48.477   64.291   48.477   64.291
 transfer_pw2rs                    2667 14.8    0.048    0.065   63.476   63.571
 xc_pw_divergence                   658 13.8    0.053    0.064   56.634   62.166
 transfer_rs2pw_250                 695 12.9    9.758   12.294   45.987   61.021
 dbcsr_multiply_generic           11830 13.9    0.644    0.751   58.425   60.718
 mp_alltoall_z22v                 11227 18.2   35.413   60.102   35.413   60.102
 xc_rho_set_and_dset_create         658 13.8    1.461    1.838   54.169   55.387
 qs_scf_new_mos                     623  9.0    0.003    0.005   51.169   51.626
 qs_scf_loop_do_ot                  623 10.0    0.004    0.005   51.166   51.623
 transfer_pw2rs_250                 693 15.6   25.217   25.978   50.545   51.401
 ot_scf_mini                        623 11.0    0.019    0.020   47.353   47.853
 mp_alltoall_d11v                  9155 15.0   23.955   39.707   23.955   39.707
 rs_gather_matrices                 658 13.8    0.134    0.225   23.365   39.247
 yz_to_x                           3986 17.3    5.649    6.977   24.313   39.058
 init_scf_loop                       38  8.0    0.001    0.001   37.815   37.818
 multiply_cannon                  11830 14.9    1.361    1.497   30.781   32.959
 ot_mini                            623 12.0    0.004    0.005   31.211   31.818
 init_scf_run                        36  7.0    0.001    0.002   29.438   29.441
 scf_env_initial_rho_setup           36  8.0    0.000    0.001   29.437   29.441
 mp_waitall_1                   1623242 17.9   19.603   29.381   19.603   29.381
 x_to_yz                           4607 17.4    8.124    9.571   24.434   29.235
 wfi_extrapolate                     36  9.0    0.004    0.004   28.417   28.418
 multiply_cannon_loop             11830 15.9    1.705    2.182   24.933   26.844
 qs_ot_get_derivative               623 13.0    0.006    0.007   24.599   25.117
 -------------------------------------------------------------------------------

 The number of warnings for this run is : 1
 
 -------------------------------------------------------------------------------
  **** **** ******  **  PROGRAM ENDED AT                 2025-01-16 05:39:01.268
 ***** ** ***  *** **   PROGRAM RAN ON                               ubuntu-GPU2
 **    ****   ******    PROGRAM RAN BY                                       zkm
 ***** **    ** ** **   PROGRAM PROCESS ID                               3479623
  **** **  *******  **  PROGRAM STOPPED IN /home/zkm/CP2K/Generate_dataset/Jenni
                                           te/Elastic/elastic_cp2k/example/epsil
                                           onyy/pos
