     138
 i =        1, E =     -1761.2426025312
 Ca        -0.7511579249        1.3526023011        3.6643196891
 Ca         2.5225714879        4.5779274985        3.2875199848
 Ca        -1.8749146902        4.8543647602        3.9486327780
 Ca         3.4581450123        0.9050349639        3.5206016773
 Si         5.9574098126        5.8095504972        1.9721757471
 Si         6.7186171485        0.6353222235        3.7925626832
 Si         5.5374727896        3.4915259337        3.9311363627
  O         9.9081691910       -0.7828067882        2.6161882151
  O         0.3541739296        5.5470791494        3.5350863389
  O         5.4982649612       -0.3079034383        4.3125526229
  O         7.8519465978        0.8620729962        4.9406097355
  O         7.3995806440        0.1511807626        2.3790813478
  O         5.2508373704        4.4659610209        2.6264094172
  O         6.0500193255        2.0600579933        3.3080455796
  O         5.9952069312        5.6867862796        0.3646707716
  O         4.0258716609        3.1852542505        4.4472278035
  O         6.6257552434        4.1081538558        4.9607071147
  O         1.4774600875        2.3172144384        3.3125490738
  O        -1.3869196871        3.1925010979        2.3897835840
  O         4.0134258973        0.8267201531        1.2201964743
  O         4.5039044119       -0.9794145991        9.3077238817
  O         8.2868239378       -1.7477501641        9.4496345799
  O         6.1376772056        1.0087927352        9.3944671759
 Ca         7.6933935252        2.5989379718        6.5826689995
 Ca         4.4473819078       -0.6467564636        6.9149920769
 Ca         8.7707795015       -0.8500488487        6.4247166042
 Ca         3.4842127255        2.9833034555        6.6151896897
 Si         1.0339708137       -1.8499574699        8.3233709554
 Si         0.2861682658        3.4130461197        6.4035165832
 Si         1.3981537996        0.5038818530        6.3551073633
  O        -2.8685718284        4.6519497840        7.6891820401
  O         6.5737715464       -1.5838524070        6.6262609153
  O         1.4895945631        4.3147646633        5.7860023800
  O        -0.9258588995        3.1601550654        5.3688797198
  O        -0.2670735377        3.9903466608        7.8371262059
  O         1.5525937327       -0.3831612241        7.7482703956
  O         1.0299486472        2.0244734612        6.9209309774
  O         1.0105139014       -1.8112833632        9.9330335249
  O         2.9091271932        0.6980767078        5.7902055437
  O         0.2613603889       -0.0934347714        5.3735051279
  O         5.4969189913        1.6415184644        6.9089157879
  O        -1.7276408134        1.0115943361        7.9061760039
  O         3.4946660343        3.7970741243        8.8232836871
  O         2.5534001007        5.2093778487        1.0557460359
  O        -1.3337952622        5.5754007151        0.7051569393
  O         0.9801764560        3.0552236706        0.7141517589
 Ca         9.2690739754        3.3491095051        0.0273241060
 Ca        -3.2125632768        8.2515723947        3.6861261018
 Ca         0.0486221378       11.4955526551        3.3183663304
 Ca        -4.3456606165       11.7571817142        3.9510441200
 Ca         0.9793768134        7.8118429461        3.5166984020
 Si         3.4956485785       12.7204062233        1.9701641504
 Si         4.2485429364        7.5241733110        3.7984546686
 Si         3.0649673351       10.3752016118        3.9314416976
  O         7.4147510167        6.1574317428        2.5999700533
  O        -2.1322884032       12.4396878631        3.5423839187
  O         3.0238428247        6.5858562740        4.3188423516
  O         5.3973836284        7.7281290461        4.9318840027
  O         4.9537811689        7.0541646175        2.3892103694
  O         2.8026071413       11.3724673539        2.6325955579
  O         3.5699559463        8.9397990245        3.3056958293
  O         3.5283469081       12.5662868301        0.3654419857
  O         1.5536110346       10.0567828886        4.4418738592
  O         4.1588069571       10.9860727088        4.9568665280
  O        -0.9963432909        9.1870248212        3.3097451207
  O        -3.8639928072       10.0682264606        2.3914924658
  O         1.5460626241        7.7104645602        1.2107207675
  O         1.9941353695        5.8764975027        9.2646262184
  O         5.8246378361        5.1371396365        9.4516224853
  O         3.6443802094        7.8467504580        9.4079282437
 Ca         5.2328607121        9.4965608246        6.6053447253
 Ca         1.9893068584        6.2704120750        6.9085219109
 Ca         6.3056885407        6.0494316748        6.4294313122
 Ca         1.0048026960        9.8819106006        6.6171286625
 Si        -1.4267337849        5.0627811258        8.3199236187
 Si        -2.1845202700       10.3058179571        6.4068491994
 Si        -1.0652431767        7.3906961697        6.3578418799
  O        -5.3631796070       11.5863079168        7.6736052476
  O         4.1155545504        5.2973023907        6.6253887586
  O        -0.9710707615       11.2009894249        5.7951799561
  O        -3.3886149997       10.0268294875        5.3641185258
  O        -2.7123514979       10.9021003177        7.8421710012
  O        -0.8987562932        6.5293730271        7.7581021355
  O        -1.4482131626        8.9090935265        6.9169123103
  O        -1.4515648992        5.0745579090        9.9315515277
  O         0.4441898068        7.5754712520        5.7839955378
  O        -2.1926095567        6.7888332645        5.3666447679
  O         3.0237486044        8.5126693843        6.9092728218
  O        -4.1970724733        7.8796022598        7.9086212400
  O         1.0194793783       10.6899525153        8.8279254677
  O         0.0674399342       12.0849594336        1.0630929826
  O        -3.8117244452       12.4517900182        0.6952729245
  O        -1.4905618288        9.9251217814        0.7175116777
 Ca         6.8007723422       10.2162883609        0.0155386114
  H         3.1745404784        0.8685662461        0.5934702007
  H         4.6607866057        1.3532168962        0.6674781722
  H         5.1694920894       -0.2323742980        9.5263377097
  H         5.0057549678       -1.8542987262        9.2915522431
  H         8.1229756231       -2.5928782434        9.9899736117
  H         9.0905441893       -1.9958339451        8.8765673067
  H         5.6688297184        1.8207982045        9.9130510537
  H         6.0091952000        1.2218579939        8.4158520460
  H         3.8895556471        3.2774094038        9.6404620100
  H         4.2391346414        4.4487965266        8.6829202890
  H         1.9471703563        4.5294383788        0.6466827691
  H         2.1168909546        6.1116213769        0.9705048230
  H        -2.0524356013        5.8405958138        1.3537181215
  H        -1.0210364676        6.4521721673        0.3050561663
  H         1.0527236768        2.8073339888        1.6826799531
  H         1.4161563973        2.1986677659        0.2665003960
  H         0.7016182462        7.7406008575        0.5864598279
  H         2.1891113255        8.2260459347        0.6452566409
  H         2.6646671356        6.6138771379        9.4942396439
  H         2.5131503427        5.0054216740        9.2439977549
  H         5.6411700411        4.2833878914        9.9871747912
  H         6.6243597314        4.8913084250        8.8735858275
  H         3.1878319604        8.6716780513        9.9226510828
  H         3.5395205290        8.0742831244        8.4304388098
  H         1.4245015682       10.1550886798        9.6330639744
  H         1.7664544736       11.3307265361        8.6729431204
  H        -0.5276715632       11.4006293722        0.6440845410
  H        -0.3555167297       12.9877698085        0.9680917594
  H        -4.5211422664       12.7280636061        1.3477775395
  H        -3.4967861542       13.3242027278        0.3021521004
  H        -1.4165759495        9.6753487517        1.6846875291
  H        -1.0576916998        9.0710469896        0.2651384945
  H         0.5617719821        5.3506336588        4.4824503428
  H         1.3443047356        2.7064287597        4.2063916801
  H        -0.5329275057        3.6827076608        2.3943549074
  H         6.3926747142       -1.3362995214        5.6836787124
  H         5.6954526394        1.2392103177        6.0306561247
  H        -0.8082629963        1.3556024164        7.9375039452
  H        -1.9053434596       12.2247192270        4.4819071376
  H        -1.1261561047        9.5738216796        4.2053994055
  H        -3.0055077913       10.5520656427        2.3940387993
  H         3.9415709962        5.5194826643        5.6765115174
  H         3.2304074820        8.1258239615        6.0267538242
  H        -3.2795403413        8.2268369226        7.9424862314
     138
 i =        2, E =     -1761.2479180210
 Ca        -0.7464220727        1.3448155982        3.6643902971
 Ca         2.5275793472        4.5723160531        3.2880854389
 Ca        -1.8708967320        4.8552912443        3.9520096143
 Ca         3.4490863104        0.8873460074        3.5268061603
 Si         5.9604521742        5.8157752812        1.9740109914
 Si         6.7166834728        0.6256491690        3.7807405552
 Si         5.5363310169        3.4937031384        3.9316435222
  O         9.9022742870       -0.7980105927        2.6000407907
  O         0.3572533774        5.5457320157        3.5340155428
  O         5.4960930874       -0.3199817476        4.3085957446
  O         7.8564960885        0.8481115714        4.9255569334
  O         7.4276092982        0.1278570200        2.3837112874
  O         5.2518685740        4.4753360123        2.6298702222
  O         6.0488698981        2.0597756744        3.3095477856
  O         5.9987218192        5.6897537542        0.3664999102
  O         4.0277691290        3.1727860027        4.4481036046
  O         6.6253113714        4.1178606318        4.9579140550
  O         1.4771810244        2.2968966841        3.3128682179
  O        -1.3809454808        3.1817463769        2.3884776327
  O         4.0103781264        0.8214081086        1.2205934858
  O         4.5064693765       -0.9858407353        9.3031759050
  O         8.2916221589       -1.7669782188        9.4584837520
  O         6.1373468049        1.0018585182        9.3942810141
 Ca         7.6930348681        2.5957847714        6.5824377485
 Ca         4.4405374841       -0.6692172475        6.9067545958
 Ca         8.7756755010       -0.8607159315        6.4201501372
 Ca         3.4857500172        2.9802508965        6.6121501070
 Si         1.0307714940       -1.8636456830        8.3264196092
 Si         0.2851367090        3.4029078844        6.4048335286
 Si         1.3945356771        0.4898622388        6.3500100620
  O        -2.8674589636        4.6554288347        7.6901278343
  O         6.5688562879       -1.6113348873        6.6220130417
  O         1.4844016102        4.3100070475        5.7896104115
  O        -0.9274854448        3.1607470128        5.3682331070
  O        -0.2656583982        3.9820052487        7.8388390208
  O         1.5607576167       -0.4093949692        7.7363054200
  O         1.0257891660        2.0092554913        6.9212008428
  O         1.0016209932       -1.8404002911        9.9351423601
  O         2.9069113358        0.6875219414        5.7885105620
  O         0.2584255683       -0.0927514215        5.3586900823
  O         5.4970104630        1.6393752264        6.9109512744
  O        -1.7292739565        1.0098570299        7.9033985093
  O         3.4962841764        3.7985198604        8.8205461048
  O         2.5581564535        5.2098198222        1.0534947593
  O        -1.3275249690        5.5756755420        0.7062226390
  O         0.9816665558        3.0542975069        0.7124860817
 Ca         9.2696142941        3.3566880678        0.0211442731
 Ca        -3.2145943152        8.2543795144        3.6841308378
 Ca         0.0539500939       11.5116319159        3.3274330416
 Ca        -4.3485286215       11.7721770700        3.9572923548
 Ca         0.9790786116        7.8153853034        3.5181534537
 Si         3.4927000051       12.7304434525        1.9720757971
 Si         4.2530760346        7.5338540785        3.8004977822
 Si         3.0746329540       10.3875679556        3.9381615572
  O         7.4204403522        6.1555509296        2.5988561993
  O        -2.1240577194       12.4560722378        3.5475816952
  O         3.0222407561        6.5953460010        4.3117932513
  O         5.3993135511        7.7385258783        4.9391051188
  O         4.9564997091        7.0596678379        2.3902341634
  O         2.7970535203       11.3900043215        2.6437172133
  O         3.5744044406        8.9516169726        3.3062345675
  O         3.5445766735       12.5994734114        0.3673789076
  O         1.5589251463       10.0747771267        4.4417832630
  O         4.1671345990       11.0064721982        4.9629388845
  O        -0.9920425694        9.1892231714        3.3077002602
  O        -3.8652086476       10.0757119328        2.3926000863
  O         1.5456260096        7.7112705177        1.2100888106
  O         1.9946123780        5.8739845628        9.2664474399
  O         5.8298443944        5.1351416194        9.4525700826
  O         3.6386081833        7.8484371627        9.4056626442
 Ca         5.2233052825        9.5064647922        6.6011389998
 Ca         1.9857146462        6.2713514153        6.9090458865
 Ca         6.3082095350        6.0513980607        6.4220575302
 Ca         1.0089746814        9.8984723979        6.6075243936
 Si        -1.4218495265        5.0619907597        8.3177142768
 Si        -2.1772409229       10.3170379777        6.4168067743
 Si        -1.0576454997        7.3920638361        6.3566116657
  O        -5.3575752310       11.6006253974        7.6800137280
  O         4.1153275899        5.3107413454        6.6271468518
  O        -0.9688079177       11.2112701664        5.7896084841
  O        -3.3910809099       10.0472131239        5.3825037944
  O        -2.7362565350       10.9281161300        7.8349536467
  O        -0.8925201864        6.5297954277        7.7574910276
  O        -1.4498301505        8.9088604617        6.9194200940
  O        -1.4525853218        5.0728246119        9.9296194372
  O         0.4538240306        7.5869204592        5.7883720361
  O        -2.1905306075        6.7954196000        5.3679959602
  O         3.0186936380        8.5251427087        6.9088380255
  O        -4.1940164149        7.8951081755        7.9087286155
  O         1.0257594252       10.7051768988        8.8211824791
  O         0.0573728400       12.0909164334        1.0715691318
  O        -3.8187002060       12.4657116218        0.6861999553
  O        -1.4814874845        9.9375494969        0.7193746405
 Ca         6.8010594886       10.2176970551        0.0201449340
  H         3.1719264701        0.8627989475        0.5944986344
  H         4.6638816520        1.3469536976        0.6752400565
  H         5.1774483593       -0.2407886722        9.5182859762
  H         5.0139926067       -1.8546374925        9.2987445193
  H         8.1240223119       -2.6055217922        9.9942360227
  H         9.0879992659       -2.0107271450        8.8722171887
  H         5.6716255534        1.8188804979        9.9125171152
  H         6.0080474374        1.2187022215        8.4162001176
  H         3.8941306320        3.2801552213        9.6367265282
  H         4.2428510829        4.4483094828        8.6865602872
  H         1.9485482773        4.5296460178        0.6481869397
  H         2.1187674664        6.1110966096        0.9708966305
  H        -2.0503557401        5.8403791844        1.3511984893
  H        -1.0210680048        6.4522899510        0.3026753715
  H         1.0530795327        2.8129371758        1.6834877576
  H         1.4186793464        2.1975685714        0.2591540005
  H         0.7009358574        7.7445444132        0.5868458090
  H         2.1899887519        8.2278734583        0.6464484171
  H         2.6648415995        6.6121169967        9.4955267375
  H         2.5154103413        5.0042521338        9.2461704965
  H         5.6433475046        4.2817557349        9.9874355219
  H         6.6272281705        4.8886899246        8.8711180321
  H         3.1850447896        8.6751022236        9.9266888920
  H         3.5363749789        8.0735262572        8.4272851616
  H         1.4312916561       10.1735053233        9.6280506689
  H         1.7708642009       11.3470007191        8.6783589103
  H        -0.5334538255       11.4035662551        0.6494748691
  H        -0.3577169369       12.9916994015        0.9572048209
  H        -4.5210056205       12.7381009652        1.3495421119
  H        -3.4946971893       13.3327831536        0.3014204882
  H        -1.4143800682        9.6824400149        1.6865396957
  H        -1.0559963637        9.0779297039        0.2641585501
  H         0.5635979193        5.3480113619        4.4815566178
  H         1.3442076993        2.7020492844        4.2007202024
  H        -0.5321864187        3.6816864900        2.3959404261
  H         6.3959751862       -1.3424472314        5.6832921706
  H         5.6951689195        1.2412526767        6.0317537993
  H        -0.8100092537        1.3537267418        7.9382721660
  H        -1.9087012618       12.2278597967        4.4863635494
  H        -1.1239678515        9.5739322211        4.2033916864
  H        -3.0034165291       10.5522204446        2.3951841430
  H         3.9434911055        5.5206259881        5.6749307958
  H         3.2293748677        8.1312182468        6.0297703011
  H        -3.2717875567        8.2280467501        7.9427999643
     138
 i =        3, E =     -1761.2495888198
 Ca        -0.7435211177        1.3437991942        3.6636666468
 Ca         2.5320369067        4.5704321471        3.2869785104
 Ca        -1.8666936126        4.8527026285        3.9510344005
 Ca         3.4393995889        0.8852764830        3.5274649514
 Si         5.9633845099        5.8170600857        1.9770823606
 Si         6.7233359107        0.6237243939        3.7822268447
 Si         5.5373448053        3.4889045189        3.9270961606
  O         9.8998469427       -0.7867435350        2.6013170699
  O         0.3552887592        5.5478146081        3.5355263741
  O         5.4966644473       -0.3219788706        4.3032717589
  O         7.8604216884        0.8412994560        4.9310440431
  O         7.4385345626        0.1123323877        2.3894730622
  O         5.2485472976        4.4789174920        2.6315299438
  O         6.0523480638        2.0545784767        3.3031856318
  O         5.9999265219        5.6902257348        0.3691810491
  O         4.0320214839        3.1620617982        4.4484478119
  O         6.6240387862        4.1198821583        4.9529174517
  O         1.4840235291        2.2771769059        3.3135629177
  O        -1.3746903436        3.1689611765        2.3899535829
  O         4.0076284641        0.8193971116        1.2227191230
  O         4.5083881158       -0.9919611309        9.3054323342
  O         8.2918326046       -1.7621847640        9.4587417347
  O         6.1390902494        0.9978463367        9.3951022252
 Ca         7.6924372296        2.5923925116        6.5803048947
 Ca         4.4357845086       -0.6686090996        6.9148794621
 Ca         8.7766608472       -0.8599501701        6.4189353873
 Ca         3.4854850709        2.9745408138        6.6127216180
 Si         1.0380724693       -1.8716450636        8.3191009027
 Si         0.2859327577        3.3972184247        6.4049144604
 Si         1.3991745015        0.4816262410        6.3480634238
  O        -2.8637842796        4.6579195728        7.6856007462
  O         6.5745898450       -1.6101042044        6.6211521357
  O         1.4845931695        4.3069380041        5.7917205758
  O        -0.9269356731        3.1544582634        5.3686567371
  O        -0.2683625417        3.9717370389        7.8399284058
  O         1.5677812766       -0.4157715346        7.7330418785
  O         1.0201386986        1.9978509257        6.9204728789
  O         1.0043744511       -1.8403594392        9.9281405802
  O         2.9110153663        0.6839500698        5.7853170884
  O         0.2559678870       -0.0914819596        5.3588740680
  O         5.4991736736        1.6381606614        6.9113501513
  O        -1.7316236678        1.0097781963        7.9002692819
  O         3.5001010243        3.7995497420        8.8195770445
  O         2.5601661277        5.2088644069        1.0553771709
  O        -1.3218421587        5.5744733310        0.7061652622
  O         0.9838637284        3.0591488946        0.7090965111
 Ca         9.2747531040        3.3531773606        0.0176495449
 Ca        -3.2126500755        8.2625141076        3.6858253182
 Ca         0.0603083239       11.5044415747        3.3207907840
 Ca        -4.3467249451       11.7756873236        3.9571601647
 Ca         0.9824435518        7.8219835186        3.5169656135
 Si         3.4989933213       12.7389227825        1.9746759226
 Si         4.2523810458        7.5383157513        3.8002643633
 Si         3.0764691015       10.3997640900        3.9344156168
  O         7.4243695615        6.1591383996        2.5996731060
  O        -2.1162757066       12.4700009630        3.5539175440
  O         3.0225563161        6.5957648225        4.3099119009
  O         5.3999788530        7.7394728377        4.9390220310
  O         4.9622393118        7.0635690851        2.3921642569
  O         2.7889012380       11.4061708362        2.6458170953
  O         3.5858151392        8.9639974735        3.3081873800
  O         3.5382209484       12.6040476289        0.3695737622
  O         1.5647896096       10.0922358070        4.4507496397
  O         4.1720184245       11.0061866887        4.9643440748
  O        -0.9911554161        9.1930842806        3.3069585570
  O        -3.8624629643       10.0808337876        2.3957791762
  O         1.5450993211        7.7120031203        1.2107807236
  O         1.9956048594        5.8722257102        9.2675836328
  O         5.8344375319        5.1340007891        9.4531686294
  O         3.6383492321        7.8473911375        9.4069069892
 Ca         5.2220692081        9.5073519063        6.6000991342
 Ca         1.9823865423        6.2742885866        6.9112370149
 Ca         6.3103180425        6.0592745798        6.4231521806
 Ca         1.0183492713        9.9009792893        6.6070272761
 Si        -1.4180709986        5.0615689849        8.3166049780
 Si        -2.1877028008       10.3180334800        6.4164098207
 Si        -1.0600592995        7.3992325405        6.3600671861
  O        -5.3505117723       11.6035952365        7.6858522420
  O         4.1087563972        5.3242547371        6.6275899678
  O        -0.9724306345       11.2098871216        5.7971555333
  O        -3.3987775483       10.0555364273        5.3778055396
  O        -2.7436713726       10.9278960022        7.8367795114
  O        -0.8847672152        6.5289420204        7.7555729605
  O        -1.4485511161        8.9182291280        6.9245481405
  O        -1.4529164322        5.0730329875        9.9286050163
  O         0.4493800730        7.5838973753        5.7844321056
  O        -2.1869860290        6.7965042259        5.3673753185
  O         3.0152477976        8.5290643987        6.9104633909
  O        -4.1905104517        7.8991336052        7.9068103096
  O         1.0337369689       10.7082883861        8.8143107887
  O         0.0555254336       12.0982437594        1.0708642074
  O        -3.8205245862       12.4715826445        0.6826743484
  O        -1.4814349352        9.9388375285        0.7168610420
 Ca         6.8004414229       10.2238242387        0.0220653445
  H         3.1702810760        0.8548331258        0.5947479574
  H         4.6635006165        1.3423697420        0.6798437302
  H         5.1804635694       -0.2443200074        9.5101887227
  H         5.0200738661       -1.8585761922        9.3001677561
  H         8.1283110866       -2.6087739406        9.9922998398
  H         9.0852736104       -2.0196017320        8.8736541911
  H         5.6729229257        1.8155062973        9.9134871512
  H         6.0057611797        1.2130538668        8.4164485446
  H         3.8957283270        3.2798696488        9.6354273723
  H         4.2462589311        4.4503654416        8.6869278207
  H         1.9509093564        4.5288671375        0.6488476356
  H         2.1216873853        6.1107144611        0.9717899477
  H        -2.0469614102        5.8397700660        1.3492465901
  H        -1.0193574061        6.4524882332        0.3007746772
  H         1.0553690273        2.8102641361        1.6785703915
  H         1.4147548987        2.1979774217        0.2630853707
  H         0.7011071203        7.7467146905        0.5871164510
  H         2.1899351619        8.2284862090        0.6472501257
  H         2.6647568400        6.6119499713        9.4960835460
  H         2.5170187918        5.0028325874        9.2479014076
  H         5.6467145989        4.2800194327        9.9877205028
  H         6.6307014305        4.8872758543        8.8689395545
  H         3.1880411634        8.6796028334        9.9208005529
  H         3.5299842442        8.0779922480        8.4302561667
  H         1.4366987723       10.1883596127        9.6264305739
  H         1.7745667396       11.3598678110        8.6838586285
  H        -0.5375765318       11.4054579436        0.6583631587
  H        -0.3624806907       12.9958942151        0.9504837391
  H        -4.5238279998       12.7423851454        1.3480296390
  H        -3.4940739435       13.3411497140        0.2994224663
  H        -1.4079385890        9.6914558503        1.6862325568
  H        -1.0510916830        9.0828542018        0.2624991325
  H         0.5664686431        5.3441925084        4.4806845440
  H         1.3441451655        2.6947461656        4.1952364078
  H        -0.5313937548        3.6784404587        2.3967311992
  H         6.4013550179       -1.3503706005        5.6808145999
  H         5.6936470495        1.2409420119        6.0317924449
  H        -0.8113244476        1.3504855374        7.9379500051
  H        -1.9120791897       12.2312888399        4.4922621044
  H        -1.1218489017        9.5756652522        4.2029504692
  H        -3.0005671428       10.5555280661        2.3966438333
  H         3.9445098751        5.5250405018        5.6726381159
  H         3.2266097455        8.1360660619        6.0316081015
  H        -3.2672996456        8.2292605932        7.9419010184
     138
 i =        4, E =     -1761.2503278358
 Ca        -0.7394946186        1.3435173108        3.6676475384
 Ca         2.5361351171        4.5705092109        3.2884777162
 Ca        -1.8647858622        4.8516050783        3.9512154758
 Ca         3.4408026759        0.8871597514        3.5265383960
 Si         5.9649814891        5.8174900632        1.9792647905
 Si         6.7228853598        0.6229406617        3.7889599949
 Si         5.5401430795        3.4849061495        3.9239195174
  O         9.9004098424       -0.7823185670        2.6014701176
  O         0.3576311930        5.5470062953        3.5351621945
  O         5.4958496559       -0.3253093365        4.3047335078
  O         7.8623140669        0.8391888839        4.9344984666
  O         7.4380154122        0.1179039669        2.3935662553
  O         5.2480622775        4.4779522165        2.6309649400
  O         6.0601308835        2.0525111251        3.2974169321
  O         6.0011039494        5.6885253565        0.3711706031
  O         4.0364043984        3.1564165358        4.4471389756
  O         6.6259613930        4.1170947203        4.9498245488
  O         1.4846285407        2.2809498331        3.3085756063
  O        -1.3694446155        3.1609354309        2.3909934772
  O         4.0061857825        0.8155076563        1.2251058640
  O         4.5108967053       -0.9976902579        9.3082947201
  O         8.2937163331       -1.7620793669        9.4559210363
  O         6.1389256753        0.9936791618        9.3955259650
 Ca         7.6932421786        2.5921463407        6.5791907107
 Ca         4.4368677757       -0.6632422185        6.9220303515
 Ca         8.7765575668       -0.8549619145        6.4214444771
 Ca         3.4858868998        2.9733137728        6.6124383092
 Si         1.0414311320       -1.8724053275        8.3177784935
 Si         0.2851034785        3.3947593846        6.4034499340
 Si         1.4004476872        0.4808795382        6.3489440359
  O        -2.8614325071        4.6624384817        7.6809870230
  O         6.5758148065       -1.6019104563        6.6226259565
  O         1.4858700371        4.3041665612        5.7926028003
  O        -0.9269731029        3.1482121097        5.3668748396
  O        -0.2680109249        3.9676219157        7.8399076608
  O         1.5766352225       -0.4173217652        7.7295979749
  O         1.0182466902        1.9956424861        6.9219543724
  O         1.0076560531       -1.8363851644        9.9279984884
  O         2.9129265920        0.6822668301        5.7875468224
  O         0.2587622115       -0.0955071550        5.3597492811
  O         5.4990497400        1.6375573675        6.9118350753
  O        -1.7332707202        1.0097964761        7.9019614456
  O         3.5029791782        3.7993018489        8.8194245360
  O         2.5620877321        5.2077656921        1.0572008502