     138
 i =        1, E =     -1761.2497950492
 Ca        -0.7436414320        1.3781005041        3.6859448846
 Ca         2.5258906062        4.5806505690        3.2929303830
 Ca        -1.8792346052        4.8597110915        3.9538953702
 Ca         3.4544502837        0.9443305877        3.5271730575
 Si         5.9552434115        5.8079992467        1.9476550643
 Si         6.7233931086        0.6513954847        3.7916647866
 Si         5.5359199995        3.4951176424        3.9306683209
  O         4.9360158651       13.0268510260        2.5921818665
  O         0.3412006896        5.5539073677        3.5424169476
  O         5.5041443197       -0.2839662046        4.3279404772
  O         7.8639799180        0.8635954928        4.9306317482
  O         7.4237929047        0.1806388504        2.3797259063
  O         5.2541813835        4.4690990425        2.6254628003
  O         6.0448107111        2.0653691495        3.2971499335
  O         5.9872688194        5.6833100563        0.3400167872
  O         4.0255236772        3.1871999347        4.4482450422
  O         6.6266584979        4.0993590178        4.9645212492
  O         1.4714797699        2.3177262260        3.3103317288
  O        -1.3869417620        3.1896981132        2.3819650560
  O         4.0056057463        0.8456474060        1.2100191856
  O         4.4826817281       -0.9737486769        9.3306301142
  O         8.2947038155       -1.7283975525        9.4584615842
  O         6.1338163090        1.0226864083        9.4074634289
 Ca         7.6994920630        2.5971880980        6.5913489529
 Ca         4.4431786272       -0.6043608671        6.9449409704
 Ca         8.7731799504       -0.8163772155        6.4355738100
 Ca         3.4816214824        2.9817079287        6.6151937637
 Si         1.0425749592       -1.8013021722        8.3458388003
 Si         0.2821540825        3.4189232526        6.4056469604
 Si         1.4046843845        0.5123161047        6.3577906306
  O        -2.8615253872        4.6601373348        7.6941029838
  O         6.5798803187       -1.5659338353        6.6271271140
  O         1.4907447571        4.3110556918        5.7821911091
  O        -0.9205214355        3.1573004445        5.3617882181
  O        -0.2698875238        4.0039310056        7.8375280597
  O         1.5740205302       -0.3424961641        7.7626797971
  O         1.0325558946        2.0329436521        6.9168317916
  O         1.0222348129       -1.7861584364        9.9565589841
  O         2.9104076680        0.7076318776        5.7788106067
  O         0.2677818539       -0.0673002922        5.3643362401
  O         5.4997492513        1.6433236554        6.9092467124
  O        -1.7336111478        1.0219134670        7.9294592869
  O         3.5063955743        3.7933707797        8.8356714846
  O         2.5475226898        5.2087579527        1.0654982221
  O        -1.3297706257        5.5824412424        0.7114942025
  O         0.9778460592        3.0308968337        0.7167554706
 Ca         9.2713094351        3.3468895611       -0.0118514176
 Ca        -3.2154369709        8.2482436728        3.6868641020
 Ca         0.0545957278       11.4517440642        3.2949454410
 Ca        -4.3501398787       11.7297142345        3.9538813344
 Ca         0.9815536108        7.8151603040        3.5220572056
 Si         3.4845617332       12.6771323848        1.9461795036
 Si         4.2508140805        7.5206249933        3.7942571269
 Si         3.0644837991       10.3650474315        3.9307017200
  O         7.4067318007        6.1580828312        2.5935768013
  O        -2.1302826405       12.4232483404        3.5441884986
  O         3.0307099519        6.5855008895        4.3304565306
  O         5.3917426640        7.7330935081        4.9326152342
  O         4.9514127155        7.0489324462        2.3832803536
  O         2.7835893413       11.3387777463        2.6252688603
  O         3.5726716423        8.9343194471        3.2985205979
  O         3.5188401357       12.5501143069        0.3383183701
  O         1.5543204645       10.0561191313        4.4477851704
  O         4.1545613331       10.9679228648        4.9661680312
  O        -0.9996387554        9.1872110397        3.3088487329
  O        -3.8578572922       10.0598428325        2.3818409488
  O         1.5356679602        7.7169640804        1.2054478487
  O         1.9913899188        5.8819351527        9.2814531407
  O         5.8226916008        5.1398698112        9.4596978076
  O         3.6404336640        7.8626130786        9.4174428885
 Ca         5.2297385253        9.4672311547        6.5922119474
 Ca         1.9857046527        6.2711114195        6.9084918470
 Ca         6.3057102625        6.0526739728        6.4373863112
 Ca         1.0106946672        9.8529446738        6.6159016804
 Si        -1.4276108479        5.0676588939        8.3457072078
 Si        -2.1877449172       10.2892614573        6.4054177827
 Si        -1.0665723939        7.3818169964        6.3576576632
  O        -5.3328773639       11.5304660876        7.6929524292
  O         4.1123551624        5.3029845091        6.6266656768
  O        -0.9794483061       11.1871647380        5.7886820130
  O        -3.3908685172       10.0274024061        5.3621299409
  O        -2.7397125842       10.8755123526        7.8378145397
  O        -0.9017752808        6.5273744455        7.7619052785
  O        -1.4382562227        8.9032740378        6.9163753862
  O        -1.4478698730        5.0826846610        9.9571472968
  O         0.4371065103        7.5811311180        5.7746897760
  O        -2.2036387918        6.8027928554        5.3637447645
  O         3.0324511621        8.5173485052        6.9113734072
  O        -4.2061522368        7.8921072649        7.9308287355
  O         1.0353463570       10.6666775794        8.8373610221
  O         0.0760445746       12.0779087195        1.0662348003
  O        -3.8012872495       12.4506425919        0.7078082675
  O        -1.4923287173        9.9000200383        0.7164542005
 Ca         6.7968890224       10.2116458288       -0.0106918738
  H         3.1792630897        0.8663762645        0.5735373535
  H         4.6603933962        1.3579749205        0.6563541088
  H         5.1635650620       -0.2342489130        9.5234230075
  H         5.0014980025       -1.8439019209        9.2905187085
  H         8.1154332931       -2.5796156941       10.0002784461
  H         9.0937330688       -1.9690890338        8.8748420141
  H         5.6688497691        1.8222716586        9.9313779471
  H         6.0128973179        1.2205458000        8.4223897354
  H         3.8839146564        3.2807759922        9.6589920055
  H         4.2432561482        4.4523838346        8.6847926310
  H         1.9476754488        4.5300862387        0.6448092904
  H         2.1168106200        6.1121113063        0.9688859089
  H        -2.0567007629        5.8410238943        1.3544299951
  H        -1.0211188362        6.4510683733        0.2864311061
  H         1.0547001624        2.8056684669        1.6901769929
  H         1.4135248360        2.1997371423        0.2412634868
  H         0.7076496804        7.7362122658        0.5674685648
  H         2.1865517507        8.2225514407        0.6428762831
  H         2.6680310742        6.6170569095        9.4944295628
  H         2.5083317881        5.0088034997        9.2475256888
  H         5.6407937291        4.2896660020       10.0027196395
  H         6.6216062795        4.8977211482        8.8768219754
  H         3.1893525780        8.6705162421        9.9417996792
  H         3.5423985154        8.0731297159        8.4340317965
  H         1.4203267432       10.1515629125        9.6567677910
  H         1.7715158512       11.3244741294        8.6796120824
  H        -0.5235770317       11.3996187812        0.6449750209
  H        -0.3559557555       12.9809149160        0.9726045988
  H        -4.5278622674       12.7088035710        1.3502384242
  H        -3.4929704859       13.3190750232        0.2818767555
  H        -1.4155500412        9.6747552586        1.6896753995
  H        -1.0579566848        9.0683337393        0.2401320975
  H         0.5624622941        5.3501825573        4.4846600803
  H         1.3448435629        2.7058392843        4.2054722220
  H        -0.5342700047        3.6824063212        2.3959752365
  H         6.3965552388       -1.3337282951        5.6819142643
  H         5.6955332491        1.2398997054        6.0311210494
  H        -0.8093848801        1.3528819051        7.9394396895
  H        -1.9077958730       12.2221510760        4.4867528659
  H        -1.1255499718        9.5726458992        4.2051264454
  H        -3.0053271226       10.5529791029        2.3941139748
  H         3.9412835115        5.5192086939        5.6760825462
  H         3.2301218780        8.1263723173        6.0283275063
  H        -3.2816885556        8.2224515658        7.9441497499
     138
 i =        2, E =     -1761.2515758391
 Ca        -0.7450089685        1.3797221001        3.6778401962
 Ca         2.5253480764        4.5794563825        3.2965911362
 Ca        -1.8808267705        4.8584777560        3.9475325871
 Ca         3.4524164233        0.9451013236        3.5262164870
 Si         5.9525235582        5.8112266867        1.9455329877
 Si         6.7260434080        0.6574092804        3.7862244384
 Si         5.5395217897        3.4970167268        3.9311468026
  O         4.9389236112       13.0274043305        2.5798048555
  O         0.3419176026        5.5552761385        3.5487258856
  O         5.5100474653       -0.2782987067        4.3338133833
  O         7.8672143558        0.8703253698        4.9258196586
  O         7.4176316630        0.1863043004        2.3691999571
  O         5.2536533636        4.4717869242        2.6276470752
  O         6.0467052743        2.0707718133        3.2861795742
  O         5.9845461433        5.6817202050        0.3383019130
  O         4.0292480029        3.1884514380        4.4499633904
  O         6.6247762855        4.0976225952        4.9745412849
  O         1.4746879469        2.3163490155        3.3098572565
  O        -1.3875045166        3.1907855200        2.3715126472
  O         4.0044310293        0.8446915713        1.2030948154
  O         4.4771032927       -0.9771731094        9.3349609393
  O         8.2976018196       -1.7203590139        9.4696893283
  O         6.1380756229        1.0261716170        9.4160068504
 Ca         7.6974927568        2.6012157766        6.5916749876
 Ca         4.4406376175       -0.6063930086        6.9459053915
 Ca         8.7737452327       -0.8157070363        6.4365035296
 Ca         3.4820323430        2.9833963873        6.6150484674
 Si         1.0479521425       -1.7994744968        8.3542568904
 Si         0.2825389208        3.4192332054        6.4064382384
 Si         1.4068742907        0.5151243414        6.3577540776
  O        -2.8586642938        4.6654092673        7.7028731044
  O         6.5793602325       -1.5631633549        6.6296203698
  O         1.4914146664        4.3088104512        5.7807046647
  O        -0.9235546312        3.1599297564        5.3656869974
  O        -0.2697993668        4.0016349175        7.8393655685
  O         1.5808105216       -0.3444485578        7.7594186970
  O         1.0286874430        2.0325330976        6.9230650132
  O         1.0243035652       -1.7807077899        9.9654073547
  O         2.9142095151        0.7121653427        5.7812013514
  O         0.2683956412       -0.0630021861        5.3644738530
  O         5.5038363696        1.6447071033        6.9114959988
  O        -1.7331960749        1.0262160555        7.9338902407
  O         3.5034609081        3.7939196008        8.8368796953
  O         2.5486337565        5.2094377328        1.0650194947
  O        -1.3302603905        5.5781201580        0.7045971053
  O         0.9762598976        3.0382331620        0.7099424476
 Ca         9.2768990657        3.3494217289       -0.0221941608
 Ca        -3.2167372705        8.2495578755        3.6787660972
 Ca         0.0540309983       11.4503011227        3.2988164175
 Ca        -4.3517848821       11.7282851755        3.9478878330
 Ca         0.9795556455        7.8163089208        3.5218629898
 Si         3.4816998347       12.6808733617        1.9434699312
 Si         4.2535505555        7.5266647262        3.7895620967
 Si         3.0675832084       10.3670924838        3.9317896774
  O         7.4098130132        6.1583540443        2.5812699809
  O        -2.1297144792       12.4248274671        3.5509595672
  O         3.0364746733        6.5908573535        4.3358312574
  O         5.3955602798        7.7395925113        4.9280820487
  O         4.9457217623        7.0538883676        2.3741408503
  O         2.7835323998       11.3418827322        2.6277984527
  O         3.5748333615        8.9398424096        3.2883951137
  O         3.5166047751       12.5475529187        0.3360487632
  O         1.5573309947       10.0569865358        4.4494890101
  O         4.1532483427       10.9661971085        4.9758402636
  O        -0.9967319399        9.1858325493        3.3079428005
  O        -3.8585225647       10.0608794008        2.3712704242
  O         1.5343206321        7.7148129279        1.1979993225
  O         1.9905849122        5.8840770626        9.2794961082
  O         5.8255589667        5.1477428231        9.4707230514
  O         3.6389655317        7.8602911241        9.4239751309
 Ca         5.2281770984        9.4719013979        6.5922367427
 Ca         1.9824911891        6.2692279261        6.9106952615
 Ca         6.3061882388        6.0544327010        6.4383522021
 Ca         1.0114674381        9.8552126619        6.6157488414
 Si        -1.4225352680        5.0700120660        8.3533995522
 Si        -2.1870823166       10.2908682210        6.4064930522
 Si        -1.0649577512        7.3856734677        6.3571429282
  O        -5.3297281658       11.5361129637        7.7022207971
  O         4.1112507477        5.3040068031        6.6284591548
  O        -0.9786649330       11.1860329126        5.7868699089
  O        -3.3927708883       10.0301766801        5.3656532580
  O        -2.7401491190       10.8720268956        7.8404468834
  O        -0.8964281909        6.5266163494        7.7583676080
  O        -1.4423543285        8.9038191816        6.9225019445
  O        -1.4464886823        5.0885861482        9.9652741509
  O         0.4414967265        7.5835692911        5.7785787100
  O        -2.2030866686        6.8070197256        5.3633735627
  O         3.0371036632        8.5174826010        6.9135180898
  O        -4.2059807231        7.8957748121        7.9364395750
  O         1.0317331773       10.6681063850        8.8388305739
  O         0.0772649155       12.0788167483        1.0657109230
  O        -3.8018530509       12.4465441971        0.7021356872
  O        -1.4957816766        9.9073381762        0.7094388813
 Ca         6.8004703738       10.2145122142       -0.0213245102
  H         3.1809678821        0.8680554625        0.5643161926
  H         4.6609890608        1.3591476351        0.6550737540
  H         5.1588767297       -0.2376456348        9.5272464430
  H         5.0002230421       -1.8437341989        9.2970634469
  H         8.1174678537       -2.5744212353       10.0082994659
  H         9.0909782602       -1.9679995642        8.8803163532
  H         5.6683306250        1.8240791542        9.9368416931
  H         6.0124432203        1.2280180855        8.4319736686
  H         3.8906854464        3.2940324473        9.6624403007
  H         4.2481840723        4.4460209259        8.6973661637
  H         1.9479644580        4.5304956192        0.6467259599
  H         2.1160656248        6.1109622695        0.9694541118
  H        -2.0525077858        5.8453239067        1.3495537809
  H        -1.0274251523        6.4492451239        0.2809092114
  H         1.0574902701        2.7963210485        1.6799962199
  H         1.4121364665        2.2017428124        0.2444645669
  H         0.7076707613        7.7372406945        0.5600793278
  H         2.1885967602        8.2240604512        0.6433755636
  H         2.6675362539        6.6153213642        9.5007857323
  H         2.5074635550        5.0120970012        9.2559395620
  H         5.6433084663        4.2947414072       10.0109615133
  H         6.6191206560        4.8988329240        8.8822101480
  H         3.1872097585        8.6704225408        9.9433690771
  H         3.5393796855        8.0816127342        8.4429967481
  H         1.4262984932       10.1649020336        9.6599872737
  H         1.7771464598       11.3176190018        8.6926481223
  H        -0.5230722335       11.3998387264        0.6470287018
  H        -0.3564654741       12.9800883627        0.9725269349
  H        -4.5241083687       12.7137932982        1.3464008112
  H        -3.4990228385       13.3174335369        0.2776396453
  H        -1.4128821850        9.6656949838        1.6793435054
  H        -1.0590135699        9.0709983036        0.2440109765
  H         0.5634624021        5.3472169665        4.4894015672
  H         1.3445790231        2.7054627602        4.2044889884
  H        -0.5347564018        3.6830565860        2.3931230437
  H         6.3979244930       -1.3328014949        5.6832488658
  H         5.6955342626        1.2417235091        6.0320627724
  H        -0.8079109802        1.3534141906        7.9444750943
  H        -1.9067278165       12.2194159143        4.4919361497
  H        -1.1255202249        9.5721112707        4.2038860663
  H        -3.0058376217       10.5533979852        2.3916805888
  H         3.9421071134        5.5210422520        5.6774165055
  H         3.2300166921        8.1280792669        6.0287068052
  H        -3.2806413507        8.2230844702        7.9491158365
     138
 i =        3, E =     -1761.2524303890
 Ca        -0.7446123581        1.3856212778        3.6655394133
 Ca         2.5260127587        4.5808458896        3.3011427327
 Ca        -1.8818292889        4.8567016628        3.9371053961
 Ca         3.4520597361        0.9464310571        3.5231777039
 Si         5.9514534000        5.8158185586        1.9471469734
 Si         6.7290561517        0.6641415811        3.7775700825
 Si         5.5397887455        3.4994139296        3.9332479226
  O         4.9446939905       13.0366413182        2.5645126110
  O         0.3398031172        5.5579170422        3.5580189443
  O         5.5164161498       -0.2723046881        4.3365217335
  O         7.8712478431        0.8769904532        4.9175314770
  O         7.4150600081        0.1957944641        2.3546430689
  O         5.2526858867        4.4766489091        2.6318813700
  O         6.0517716071        2.0795975288        3.2749419415
  O         5.9805432547        5.6816211937        0.3409636436
  O         4.0296798198        3.1880435189        4.4525793398
  O         6.6238440050        4.0928862494        4.9845048619
  O         1.4762510901        2.3147138072        3.3074127534
  O        -1.3875643481        3.1947898016        2.3578743971
  O         4.0052845148        0.8429242012        1.2013281073
  O         4.4722478325       -0.9808263322        9.3362459815
  O         8.2997017331       -1.7168167391        9.4813815746
  O         6.1385662908        1.0290787287        9.4222418693
 Ca         7.6962448453        2.6076451375        6.5947367219
 Ca         4.4392344521       -0.6056000735        6.9483181073
 Ca         8.7755351933       -0.8126363480        6.4381738515
 Ca         3.4866841974        2.9866544258        6.6187067982
 Si         1.0501047015       -1.7978546492        8.3549493062
 Si         0.2807619110        3.4184043534        6.4089416620
 Si         1.4061737730        0.5161983532        6.3585989123
  O        -2.8600057847        4.6667489844        7.7081156726
  O         6.5791073470       -1.5642109795        6.6307454966
  O         1.4908879482        4.3051931709        5.7825818537
  O        -0.9262209900        3.1598529625        5.3686381171
  O        -0.2686293826        4.0004301174        7.8432715112
  O         1.5950747925       -0.3478844793        7.7561937549
  O         1.0243590434        2.0312414213        6.9293798202
  O         1.0278733977       -1.7798664473        9.9666591501
  O         2.9141017628        0.7141884056        5.7822450768
  O         0.2687585527       -0.0629359526        5.3631781512
  O         5.5084205971        1.6442424636        6.9158151386
  O        -1.7305951340        1.0274569234        7.9293055747
  O         3.5050618335        3.7994253381        8.8418201041
  O         2.5490140267        5.2097224647        1.0667381685
  O        -1.3311639605        5.5789117046        0.6980326548
  O         0.9793837941        3.0407093828        0.7073224177
 Ca         9.2824559751        3.3556100593       -0.0274794706
 Ca        -3.2166702136        8.2548928532        3.6656666228
 Ca         0.0543109974       11.4523549873        3.3029382316
 Ca        -4.3529392435       11.7268794681        3.9370273599
 Ca         0.9796066379        7.8167966895        3.5193223612
 Si         3.4811184207       12.6853384944        1.9439964592
 Si         4.2568253263        7.5337726421        3.7809666929
 Si         3.0681049621       10.3693949631        3.9334706926
  O         7.4157324264        6.1670035856        2.5656014340
  O        -2.1316489642       12.4273589851        3.5602774125
  O         3.0431558028        6.5970259809        4.3377852234
  O         5.4001327075        7.7470012339        4.9195186496
  O         4.9429607208        7.0639257507        2.3597308489
  O         2.7819912974       11.3476390397        2.6324287692
  O         3.5803421566        8.9487595540        3.2760453698
  O         3.5127572673       12.5473869423        0.3374542458
  O         1.5579889093       10.0570953512        4.4524181398
  O         4.1523539829       10.9619763000        4.9853196862
  O        -0.9944763427        9.1842627610        3.3050964265
  O        -3.8589281470       10.0648813496        2.3578566217
  O         1.5351462241        7.7126564428        1.1954334649
  O         1.9915395123        5.8860509555        9.2760157747
  O         5.8283429462        5.1521525501        9.4823615357
  O         3.6378031143        7.8598982660        9.4288676045
 Ca         5.2277095942        9.4783908810        6.5948720578
 Ca         1.9807234857        6.2687934570        6.9144038212
 Ca         6.3074063052        6.0571434724        6.4403362193
 Ca         1.0164389935        9.8580036456        6.6197335420
 Si        -1.4206693197        5.0726377741        8.3535464661
 Si        -2.1885713168       10.2909451578        6.4087914513
 Si        -1.0661704062        7.3870550667        6.3578717506
  O        -5.3307661282       11.5370025689        7.7078678487
  O         4.1129239587        5.3006145101        6.6286598237
  O        -0.9786813748       11.1834427075        5.7889712464
  O        -3.3944316006       10.0310123457        5.3675936421
  O        -2.7391405904       10.8697995360        7.8445071210
  O        -0.8846407770        6.5259304652        7.7565976125
  O        -1.4450630424        8.9038054364        6.9272574518
  O        -1.4431176608        5.0898769492        9.9659679201
  O         0.4407751865        7.5859370232        5.7792607771
  O        -2.2031548097        6.8082174565        5.3612750064
  O         3.0397634929        8.5170175789        6.9165013578
  O        -4.2041590533        7.8966287979        7.9344133625
  O         1.0330551399       10.6744732618        8.8431767373
  O         0.0777884491       12.0792045728        1.0674594321
  O        -3.8035620077       12.4470003773        0.6955912565
  O        -1.4927074839        9.9103463912        0.7066452102
 Ca         6.8042337019       10.2205705858       -0.0259291150
  H         3.1821281539        0.8705413671        0.5581143937
  H         4.6620767694        1.3595242383        0.6554427911
  H         5.1502731569       -0.2412352458        9.5365735822
  H         4.9973736723       -1.8456244015        9.3057143991
  H         8.1202845144       -2.5689895609       10.0229396553
  H         9.0912875784       -1.9640906214        8.8885665382
  H         5.6683627869        1.8270971905        9.9449505027
  H         6.0117171172        1.2391399444        8.4416287314
  H         3.8929248761        3.2990461264        9.6688839056
  H         4.2537080590        4.4472978232        8.7060990281
  H         1.9487806493        4.5296609346        0.6498481676
  H         2.1157196492        6.1102959643        0.9703087088
  H        -2.0511732484        5.8472355996        1.3448272226
  H        -1.0309376483        6.4484528765        0.2731603549
  H         1.0577158934        2.7899426688        1.6750190727
  H         1.4135044474        2.2031324019        0.2399587372
  H         0.7082108506        7.7396844521        0.5544122193
  H         2.1898988117        8.2254230681        0.6451680201
  H         2.6651752297        6.6164534984        9.5089913477
  H         2.5061061978        5.0143739196        9.2658223920
  H         5.6465250786        4.3005210244       10.0251772704
  H         6.6197072670        4.9026390718        8.8901051340
  H         3.1833031685        8.6697777999        9.9489621586
  H         3.5342361783        8.0900204106        8.4511724127
  H         1.4267063828       10.1701528456        9.6663979109
  H         1.7837030641       11.3187519019        8.7023078948
  H        -0.5222458989       11.3991067830        0.6502437951
  H        -0.3564110756       12.9796708445        0.9726435801
  H        -4.5228820799       12.7163972705        1.3428271399
  H        -3.5021143360       13.3167699449        0.2718758455
  H        -1.4135358390        9.6599400928        1.6743521096
  H        -1.0579249330        9.0729724432        0.2392344673
  H         0.5638898865        5.3427354318        4.4964644978
  H         1.3439468364        2.7034689517        4.2020249998
  H        -0.5336490599        3.6840876232        2.3838397484
  H         6.4001706560       -1.3285701103        5.6850702284
  H         5.6951397693        1.2435751502        6.0343741846
  H        -0.8059294557        1.3553542584        7.9513848149
  H        -1.9063859391       12.2156453166        4.4993505250
  H        -1.1261715432        9.5697829418        4.2010628453
  H        -3.0048812237       10.5540238907        2.3826273653
  H         3.9433224626        5.5260295127        5.6795602144
  H         3.2296757760        8.1293549339        6.0304026559
  H        -3.2795066567        8.2250557779        7.9564881892
     138
 i =        4, E =     -1761.2529047580
 Ca        -0.7434799236        1.3895698270        3.6623230309
 Ca         2.5264006795        4.5826844297        3.3040550583
 Ca        -1.8812701434        4.8575892319        3.9343696580
 Ca         3.4522756210        0.9465341086        3.5227976247
 Si         5.9555138820        5.8185619092        1.9485939809
 Si         6.7302295794        0.6654732361        3.7788957553
 Si         5.5377495789        3.5005624903        3.9347697854
  O         4.9491066976       13.0443090688        2.5638863739
  O         0.3386523684        5.5581566897        3.5608611291
  O         5.5149866301       -0.2718717658        4.3308429977
  O         7.8729253451        0.8743798962        4.9189604454
  O         7.4169975809        0.1962001652        2.3556007922
  O         5.2519387524        4.4843458052        2.6375084363
  O         6.0477094880        2.0792326163        3.2779284978
  O         5.9800404251        5.6811918748        0.3432087482
  O         4.0284078444        3.1862409317        4.4544590323
  O         6.6253073780        4.0944837875        4.9825571682
  O         1.4756371641        2.3152269119        3.3042713765
  O        -1.3867629368        3.2005192917        2.3551273142
  O         4.0061949193        0.8430312839        1.2034663124
  O         4.4709158921       -0.9818574261        9.3372650902
  O         8.2974197398       -1.7183883294        9.4804215784
  O         6.1372683756        1.0290785991        9.4236190949
 Ca         7.6955292651        2.6090720957        6.5947709693
 Ca         4.4391635072       -0.6037932210        6.9504699356
 Ca         8.7759686420       -0.8095076803        6.4357603659
 Ca         3.4894726437        2.9872885842        6.6223984982
 Si         1.0509082865       -1.8000279928        8.3507316813
 Si         0.2812680659        3.4153694858        6.4087975846
 Si         1.4070103916        0.5149254826        6.3566894378
  O        -2.8616544191        4.6678395492        7.7071004419
  O         6.5800826703       -1.5641596467        6.6304245461
  O         1.4903957830        4.3044373028        5.7836601512
  O        -0.9266487045        3.1600336177        5.3685854121
  O        -0.2683007740        3.9975787421        7.8429281506
  O         1.5972018130       -0.3503989879        7.7539918407
  O         1.0210125673        2.0270198683        6.9326726496
  O         1.0276633565       -1.7801193544        9.9626710822
  O         2.9149558011        0.7154876034        5.7810139616
  O         0.2674683395       -0.0648567885        5.3634713038
  O         5.5075963688        1.6446033186        6.9165022518
  O        -1.7283114983        1.0275592619        7.9234457997
  O         3.5055760904        3.8022339915        8.8421418639
  O         2.5493118192        5.2095332677        1.0677815730