 DBCSR| CPU Multiplication driver                                           XSMM (U)
 DBCSR| Multrec recursion limit                                              512 (U)
 DBCSR| Multiplication stack size                                           1000 (D)
 DBCSR| Maximum elements for images                                    UNLIMITED (U)
 DBCSR| Multiplicative factor virtual images                                   1 (U)
 DBCSR| Use multiplication densification                                       T (D)
 DBCSR| Multiplication size stacks                                             3 (U)
 DBCSR| Use memory pool for CPU allocation                                     F (U)
 DBCSR| Number of 3D layers                                               SINGLE (U)
 DBCSR| Use MPI memory allocation                                              F (U)
 DBCSR| Use RMA algorithm                                                      F (U)
 DBCSR| Use Communication thread                                               T (U)
 DBCSR| Communication thread load                                             83 (D)
 DBCSR| MPI: My process id                                                     0
 DBCSR| MPI: Number of processes                                              52
 DBCSR| OMP: Current number of threads                                         2
 DBCSR| OMP: Max number of threads                                             2
 DBCSR| Split modifier for TAS multiplication algorithm                  1.0E+00 (U)


  **** **** ******  **  PROGRAM STARTED AT               2025-01-16 06:13:04.269
 ***** ** ***  *** **   PROGRAM STARTED ON                           ubuntu-GPU2
 **    ****   ******    PROGRAM STARTED BY                                   zkm
 ***** **    ** ** **   PROGRAM PROCESS ID                               3480267
  **** **  *******  **  PROGRAM STARTED IN /home/zkm/CP2K/Generate_dataset/Jenni
                                           te/Elastic/elastic_cp2k/example/epsil
                                           onzz/pos

 CP2K| version string:                                       CP2K version 2024.3
 CP2K| source code revision number:                                  git:6712648
 CP2K| cp2kflags: omp libint fftw3 libxc libgrpp pexsi elpa parallel scalapack m
 CP2K|            pi_f08 cosma quip xsmm plumed2 spglib mkl sirius libvori libbq
 CP2K|            qb libvdwxc hdf5
 CP2K| is freely available from                            https://www.cp2k.org/
 CP2K| Program compiled at            2024年 10月 05日 星期六 13:00:57 CST
 CP2K| Program compiled on                                           ubuntu-GPU2
 CP2K| Program compiled for                                                local
 CP2K| Data directory path                       /home/zkm/CP2K/cp2k-2024.3/data
 CP2K| Input file name                                                geoopt.inp

 GLOBAL| Force Environment number                                              1
 GLOBAL| Basis set file name                                        BASIS_MOLOPT
 GLOBAL| Potential file name                                           POTENTIAL
 GLOBAL| MM Potential file name                                     MM_POTENTIAL
 GLOBAL| Coordinate file name                                          coord.xyz
 GLOBAL| Method name                                                        CP2K
 GLOBAL| Project name                                                     geoopt
 GLOBAL| Run type                                                        GEO_OPT
 GLOBAL| FFT library                                                       FFTW3
 GLOBAL| Diagonalization library                                            ELPA
 GLOBAL| DGEMM library                                                      BLAS
 GLOBAL| Minimum number of eigenvectors for ELPA usage                        16
 GLOBAL| Orthonormality check for eigenvectors                          DISABLED
 GLOBAL| Matrix multiplication library                                     COSMA
 GLOBAL| All-to-all communication in single precision                          F
 GLOBAL| FFTs using library dependent lengths                                  F
 GLOBAL| Grid backend                                                       AUTO
 GLOBAL| Global print level                                                  LOW
 GLOBAL| MPI I/O enabled                                                       T
 GLOBAL| Total number of message passing processes                            52
 GLOBAL| Number of threads for this process                                    2
 GLOBAL| This output is from process                                           0
 GLOBAL| Stack size for threads created by OpenMP (OMP_STACKSIZE)        default
 GLOBAL| CPU model name            Intel(R) Xeon(R) Platinum 8179M CPU @ 2.40GHz
 GLOBAL| CPUID                                                              1003

 MEMORY| system memory details [Kb]
 MEMORY|                        rank 0           min           max       average
 MEMORY| MemTotal            527974664     527974664     527974664     527974664
 MEMORY| MemFree             104861772     104861772     104861772     104861772
 MEMORY| Buffers               6978732       6978732       6978732       6978732
 MEMORY| Cached              241446652     241446652     241446652     241446652
 MEMORY| Slab                 39928408      39928408      39928408      39928408
 MEMORY| SReclaimable         37103124      37103124      37103124      37103124
 MEMORY| MemLikelyFree       390390280     390390280     390390280     390390280


 GENERATE|  Preliminary Number of Bonds generated:                             0
 GENERATE|  Achieved consistency in connectivity generation.

 *******************************************************************************
 *******************************************************************************
 **                                                                           **
 **     #####                         ##              ##                      **
 **    ##   ##            ##          ##              ##                      **
 **   ##     ##                       ##            ######                    **
 **   ##     ##  ##   ##  ##   #####  ##  ##   ####   ##    #####    #####    **
 **   ##     ##  ##   ##  ##  ##      ## ##   ##      ##   ##   ##  ##   ##   **
 **   ##  ## ##  ##   ##  ##  ##      ####     ###    ##   ######   ######    **
 **    ##  ###   ##   ##  ##  ##      ## ##      ##   ##   ##       ##        **
 **     #######   #####   ##   #####  ##  ##  ####    ##    #####   ##        **
 **           ##                                                    ##        **
 **                                                                           **
 **                                                ... make the atoms dance   **
 **                                                                           **
 **            Copyright (C) by CP2K developers group (2000-2024)             **
 **                      J. Chem. Phys. 152, 194103 (2020)                    **
 **                                                                           **
 *******************************************************************************


 TOTAL NUMBERS AND MAXIMUM NUMBERS

  Total number of            - Atomic kinds:                                   4
                             - Atoms:                                        138
                             - Shell sets:                                   138
                             - Shells:                                       620
                             - Primitive Cartesian functions:                696
                             - Cartesian basis functions:                   1554
                             - Spherical basis functions:                   1460

  Maximum angular momentum of- Orbital basis functions:                        2
                             - Local part of the GTH pseudopotential:          2
                             - Non-local part of the GTH pseudopotential:      3


 SCF PARAMETERS         Density guess:                                    ATOMIC
                        --------------------------------------------------------
                        max_scf:                                              25
                        max_scf_history:                                       0
                        max_diis:                                              4
                        --------------------------------------------------------
                        eps_scf:                                        1.00E-07
                        eps_scf_history:                                0.00E+00
                        eps_diis:                                       1.00E-01
                        eps_eigval:                                     1.00E-05
                        --------------------------------------------------------
                        level_shift [a.u.]:                             0.000000
                        --------------------------------------------------------
                        Outer loop SCF in use 
                        No variables optimised in outer loop
                        eps_scf                                         1.00E-07
                        max_scf                                               20
                        No outer loop optimization
                        step_size                                       5.00E-01

 BFGS| Use rational function optimization for step estimation:                NO
 BFGS| Use model Hessian for initial guess:                                  YES
 BFGS| Restart Hessian:                                                       NO
 BFGS| Trust radius:                                                       0.378

 *******************************************************************************
 ***                     STARTING GEOMETRY OPTIMIZATION                      ***
 ***                                   BFGS                                  ***
 *******************************************************************************

 Number of electrons:                                                        656
 Number of occupied orbitals:                                                328
 Number of molecular orbitals:                                               328

 Number of orbital functions:                                               1460
 Number of independent orbital functions:                                   1460

 Extrapolation method: initial_guess


 SCF WAVEFUNCTION OPTIMIZATION

  ----------------------------------- OT ---------------------------------------
  Minimizer      : DIIS                : direct inversion
                                         in the iterative subspace
                                         using   7 DIIS vectors
                                         safer DIIS on
  Preconditioner : FULL_KINETIC        : inversion of T + eS
  Precond_solver : DEFAULT
  stepsize       :    0.15000000                  energy_gap     :    0.20000000
  eps_taylor     :   0.10000E-15                  max_taylor     :             4
  ----------------------------------- OT ---------------------------------------

  Step     Update method      Time    Convergence         Total energy    Change
  ------------------------------------------------------------------------------
     1 OT DIIS     0.15E+00    1.4     0.01913509     -1710.1692663905 -1.71E+03
     2 OT DIIS     0.15E+00    1.9     0.01129262     -1728.8067983057 -1.86E+01
     3 OT DIIS     0.15E+00    1.7     0.00840937     -1737.8274269419 -9.02E+00
     4 OT DIIS     0.15E+00    1.7     0.00560657     -1746.4979575108 -8.67E+00
     5 OT DIIS     0.15E+00    1.8     0.00416902     -1750.9701394653 -4.47E+00
     6 OT DIIS     0.15E+00    1.9     0.00321807     -1753.8572195670 -2.89E+00
     7 OT DIIS     0.15E+00    1.7     0.00246318     -1756.0100150017 -2.15E+00
     8 OT DIIS     0.15E+00    1.7     0.00192939     -1757.4345779405 -1.42E+00
     9 OT DIIS     0.15E+00    1.7     0.00153769     -1758.3738745894 -9.39E-01
    10 OT DIIS     0.15E+00    1.9     0.00129748     -1758.9775927758 -6.04E-01
    11 OT DIIS     0.15E+00    1.7     0.00110062     -1759.3898009294 -4.12E-01
    12 OT DIIS     0.15E+00    1.7     0.00096815     -1759.7317063677 -3.42E-01
    13 OT DIIS     0.15E+00    1.7     0.00082082     -1759.9819121399 -2.50E-01
    14 OT DIIS     0.15E+00    1.9     0.00069768     -1760.1913630794 -2.09E-01
    15 OT DIIS     0.15E+00    1.7     0.00056412     -1760.3752739176 -1.84E-01
    16 OT DIIS     0.15E+00    1.7     0.00046816     -1760.4790078600 -1.04E-01
    17 OT DIIS     0.15E+00    1.7     0.00036959     -1760.5709826003 -9.20E-02
    18 OT DIIS     0.15E+00    1.9     0.00030874     -1760.6173457368 -4.64E-02
    19 OT DIIS     0.15E+00    1.7     0.00026138     -1760.6512807714 -3.39E-02
    20 OT DIIS     0.15E+00    1.7     0.00022887     -1760.6741568824 -2.29E-02
    21 OT DIIS     0.15E+00    1.7     0.00021634     -1760.6878096155 -1.37E-02
    22 OT DIIS     0.15E+00    1.9     0.00020934     -1760.6963642050 -8.55E-03
    23 OT SD       0.15E+00    2.0     0.00020903     -1760.7033008079 -6.94E-03
    24 OT SD       0.15E+00    1.7     0.00021089     -1760.7064516695 -3.15E-03
    25 OT SD       0.15E+00    1.7     0.00021345     -1760.7096644619 -3.21E-03

  Leaving inner SCF loop after reaching    25 steps.


  Electronic density on regular grids:       -655.9999999994        0.0000000006
  Core density on regular grids:              655.9999999997       -0.0000000003
  Total charge density on r-space grids:        0.0000000003
  Total charge density g-space grids:           0.0000000003

  Overlap energy of the core charge distribution:               0.00000060301891
  Self energy of the core charge distribution:              -4144.80997841715816
  Core Hamiltonian energy:                                   1116.91038986575313
  Hartree energy:                                            1614.22020781042875
  Exchange-correlation energy:                               -346.53956919492680
  Dispersion energy:                                           -0.49071512901782

  Total energy:                                             -1760.70966446190232

  outer SCF iter =    1 RMS gradient =   0.21E-03 energy =      -1760.7096644619

  ----------------------------------- OT ---------------------------------------
  Minimizer      : DIIS                : direct inversion
                                         in the iterative subspace
                                         using   7 DIIS vectors
                                         safer DIIS on
  Preconditioner : FULL_KINETIC        : inversion of T + eS
  Precond_solver : DEFAULT
  stepsize       :    0.15000000                  energy_gap     :    0.20000000
  eps_taylor     :   0.10000E-15                  max_taylor     :             4
  ----------------------------------- OT ---------------------------------------

  Step     Update method      Time    Convergence         Total energy    Change
  ------------------------------------------------------------------------------
     1 OT DIIS     0.15E+00    3.6     0.00042851     -1760.7129603135 -3.30E-03
     2 OT DIIS     0.15E+00    1.7     0.00037043     -1760.7250196895 -1.21E-02
     3 OT DIIS     0.15E+00    1.7     0.00033816     -1760.7424533390 -1.74E-02
     4 OT DIIS     0.15E+00    1.7     0.00033658     -1760.7550495459 -1.26E-02
     5 OT SD       0.15E+00    1.9     0.00033881     -1760.7585558419 -3.51E-03
     6 OT SD       0.15E+00    1.7     0.00034606     -1760.7668805791 -8.32E-03
     7 OT SD       0.15E+00    1.7     0.00035548     -1760.7755938902 -8.71E-03
     8 OT SD       0.15E+00    1.7     0.00036642     -1760.7848063153 -9.21E-03
     9 OT SD       0.15E+00    1.9     0.00037839     -1760.7946054727 -9.80E-03
    10 OT SD       0.15E+00    1.7     0.00039096     -1760.8050596883 -1.05E-02
    11 OT SD       0.15E+00    1.7     0.00040375     -1760.8162185741 -1.12E-02
    12 OT SD       0.15E+00    1.7     0.00041640     -1760.8281123952 -1.19E-02
    13 OT DIIS     0.15E+00    1.9     0.00042857     -1760.8407509351 -1.26E-02
    14 OT DIIS     0.15E+00    1.7     0.00050177     -1760.8436121127 -2.86E-03
    15 OT SD       0.15E+00    1.8     0.00053081     -1760.8456429748 -2.03E-03
    16 OT SD       0.15E+00    1.7     0.00051254     -1760.8653558766 -1.97E-02
    17 OT SD       0.15E+00    1.9     0.00051070     -1760.8841599506 -1.88E-02
    18 OT SD       0.15E+00    1.7     0.00051139     -1760.9028982561 -1.87E-02
    19 OT SD       0.15E+00    2.1     0.00051184     -1760.9216903612 -1.88E-02
    20 OT DIIS     0.15E+00    1.7     0.00051101     -1760.9404956870 -1.88E-02
    21 OT DIIS     0.15E+00    2.0     0.00047340     -1761.0802053794 -1.40E-01
    22 OT DIIS     0.15E+00    1.7     0.00028526     -1761.1894143533 -1.09E-01
    23 OT DIIS     0.15E+00    1.8     0.00029896     -1761.1966581890 -7.24E-03
    24 OT DIIS     0.15E+00    1.7     0.00016593     -1761.2356679789 -3.90E-02
    25 OT DIIS     0.15E+00    1.9     0.00040737     -1761.1784844477  5.72E-02

  Leaving inner SCF loop after reaching    25 steps.


  Electronic density on regular grids:       -655.9999999994        0.0000000006
  Core density on regular grids:              655.9999999997       -0.0000000003
  Total charge density on r-space grids:        0.0000000003
  Total charge density g-space grids:           0.0000000003

  Overlap energy of the core charge distribution:               0.00000060301891
  Self energy of the core charge distribution:              -4144.80997841715816
  Core Hamiltonian energy:                                   1117.00046889631994
  Hartree energy:                                            1613.90933160454006
  Exchange-correlation energy:                               -346.78759200537900
  Dispersion energy:                                           -0.49071512901782

  Total energy:                                             -1761.17848444767628

  outer SCF iter =    2 RMS gradient =   0.41E-03 energy =      -1761.1784844477

  ----------------------------------- OT ---------------------------------------
  Minimizer      : DIIS                : direct inversion
                                         in the iterative subspace
                                         using   7 DIIS vectors
                                         safer DIIS on
  Preconditioner : FULL_KINETIC        : inversion of T + eS
  Precond_solver : DEFAULT
  stepsize       :    0.15000000                  energy_gap     :    0.20000000
  eps_taylor     :   0.10000E-15                  max_taylor     :             4
  ----------------------------------- OT ---------------------------------------

  Step     Update method      Time    Convergence         Total energy    Change
  ------------------------------------------------------------------------------
     1 OT DIIS     0.15E+00    3.7     0.00035058     -1761.2122494841 -3.38E-02
     2 OT DIIS     0.15E+00    1.7     0.00027349     -1761.2200121168 -7.76E-03
     3 OT DIIS     0.15E+00    1.7     0.00018252     -1761.2308638088 -1.09E-02
     4 OT DIIS     0.15E+00    2.0     0.00013584     -1761.2372851967 -6.42E-03
     5 OT DIIS     0.15E+00    1.7     0.00009567     -1761.2412860709 -4.00E-03
     6 OT DIIS     0.15E+00    1.7     0.00005819     -1761.2439593912 -2.67E-03
     7 OT DIIS     0.15E+00    1.7     0.00003882     -1761.2446677835 -7.08E-04
     8 OT DIIS     0.15E+00    2.0     0.00002349     -1761.2450094520 -3.42E-04
     9 OT DIIS     0.15E+00    1.7     0.00001696     -1761.2451092526 -9.98E-05
    10 OT DIIS     0.15E+00    1.7     0.00001139     -1761.2451675778 -5.83E-05
    11 OT DIIS     0.15E+00    1.7     0.00000795     -1761.2451941524 -2.66E-05
    12 OT DIIS     0.15E+00    1.9     0.00000554     -1761.2452069884 -1.28E-05
    13 OT DIIS     0.15E+00    1.7     0.00000378     -1761.2452134520 -6.46E-06
    14 OT DIIS     0.15E+00    1.7     0.00000283     -1761.2452158069 -2.35E-06
    15 OT DIIS     0.15E+00    1.7     0.00000198     -1761.2452171674 -1.36E-06
    16 OT DIIS     0.15E+00    2.0     0.00000140     -1761.2452178892 -7.22E-07
    17 OT DIIS     0.15E+00    1.7     0.00000097     -1761.2452182689 -3.80E-07
    18 OT DIIS     0.15E+00    1.7     0.00000069     -1761.2452184350 -1.66E-07
    19 OT DIIS     0.15E+00    1.7     0.00000049     -1761.2452185186 -8.35E-08
    20 OT DIIS     0.15E+00    2.0     0.00000037     -1761.2452185531 -3.45E-08
    21 OT DIIS     0.15E+00    1.7     0.00000028     -1761.2452185727 -1.96E-08
    22 OT DIIS     0.15E+00    1.7     0.00000023     -1761.2452185837 -1.10E-08
    23 OT DIIS     0.15E+00    1.7     0.00000018     -1761.2452185918 -8.11E-09
    24 OT DIIS     0.15E+00    2.0     0.00000012     -1761.2452185983 -6.54E-09
    25 OT DIIS     0.15E+00    1.7     0.00000009     -1761.2452186011 -2.79E-09

  *** SCF run converged in    25 steps ***


  Electronic density on regular grids:       -655.9999999994        0.0000000006
  Core density on regular grids:              655.9999999997       -0.0000000003
  Total charge density on r-space grids:        0.0000000003
  Total charge density g-space grids:           0.0000000003

  Overlap energy of the core charge distribution:               0.00000060301891
  Self energy of the core charge distribution:              -4144.80997841715816
  Core Hamiltonian energy:                                   1116.79752905334340
  Hartree energy:                                            1614.03999199776217
  Exchange-correlation energy:                               -346.78204670903801
  Dispersion energy:                                           -0.49071512901782

  Total energy:                                             -1761.24521860109007

  outer SCF iter =    3 RMS gradient =   0.94E-07 energy =      -1761.2452186011
  outer SCF loop converged in   3 iterations or   75 steps


 ENERGY| Total FORCE_EVAL ( QS ) energy [a.u.]:            -1761.245218602693740

 ATOMIC FORCES in [a.u.]

 # Atom   Kind   Element          X              Y              Z
      1      1      Ca         -0.00037036    -0.00077798     0.00091366
      2      1      Ca          0.00060557     0.00019526     0.00063825
      3      1      Ca         -0.00065864     0.00050392     0.00081797
      4      1      Ca          0.00010023     0.00008653     0.00181750
      5      2      Si          0.00032765    -0.00018140    -0.00762741
      6      2      Si          0.00086949    -0.00025271    -0.00014254
      7      2      Si          0.00034247     0.00087661    -0.00020280
      8      3      O           0.00098079     0.00056590     0.00013377
      9      3      O           0.00034197    -0.00035527     0.00141026
     10      3      O          -0.00095311    -0.00041058     0.00207586
     11      3      O           0.00073168     0.00125240    -0.00159295
     12      3      O          -0.00032234     0.00209662    -0.00056078
     13      3      O          -0.00023118    -0.00021532     0.00336699
     14      3      O          -0.00001851     0.00161202    -0.00276295
     15      3      O          -0.00075758     0.00030330    -0.00947767
     16      3      O          -0.00026208    -0.00025445     0.00036661
     17      3      O           0.00010167     0.00065210     0.00165776
     18      3      O           0.00075915    -0.00055883    -0.00081175
     19      3      O           0.00032114    -0.00032464    -0.00169196
     20      3      O          -0.00331856     0.00287870    -0.00524325
     21      3      O          -0.00165628    -0.00237108     0.00232252
     22      3      O          -0.00103133     0.00032663     0.00255899
     23      3      O          -0.00064711     0.00535462     0.00553646
     24      1      Ca          0.00071952    -0.00040308     0.00093473
     25      1      Ca         -0.00031572    -0.00002608     0.00039126
     26      1      Ca          0.00033076     0.00076192     0.00126871
     27      1      Ca         -0.00007768    -0.00018836    -0.00069542
     28      2      Si         -0.00026944     0.00038751     0.00600820
     29      2      Si         -0.00077289    -0.00013018     0.00125919
     30      2      Si         -0.00063485    -0.00057890     0.00128593
     31      3      O          -0.00099784     0.00157879    -0.00052808
     32      3      O           0.00122356     0.00124713     0.00002008
     33      3      O          -0.00117372    -0.00184377    -0.00116705
     34      3      O          -0.00024835     0.00151571    -0.00112105
     35      3      O           0.00159591     0.00132860    -0.00045755
     36      3      O           0.00111292    -0.00064258    -0.00100621
     37      3      O           0.00126268     0.00017804    -0.00036079
     38      3      O           0.00187051     0.00316005     0.00788468
     39      3      O           0.00148163     0.00214899    -0.00214236
     40      3      O           0.00130306     0.00177797    -0.00084761
     41      3      O          -0.00033345     0.00223256    -0.00024449
     42      3      O          -0.00002691     0.00133075     0.00476444
     43      3      O           0.00640838    -0.00248621     0.00691473
     44      3      O          -0.00096403     0.00035129     0.00147968
     45      3      O           0.00186602     0.00213103     0.00100961
     46      3      O           0.00136853    -0.00486241     0.00035967
     47      1      Ca         -0.00078846     0.00016916    -0.00722910
     48      1      Ca         -0.00026148    -0.00093008     0.00089967
     49      1      Ca          0.00045059     0.00010496     0.00065300
     50      1      Ca         -0.00054905     0.00038336     0.00086513
     51      1      Ca          0.00002858     0.00010124     0.00196854
     52      2      Si          0.00022528     0.00002797    -0.00761235
     53      2      Si          0.00097929    -0.00046140    -0.00010838
     54      2      Si          0.00032134     0.00098860    -0.00007149
     55      3      O           0.00084648     0.00058116     0.00032412
     56      3      O           0.00022226    -0.00029157     0.00155885
     57      3      O          -0.00106482    -0.00032431     0.00207300
     58      3      O           0.00078857     0.00134248    -0.00131562
     59      3      O          -0.00011049     0.00196795    -0.00018127
     60      3      O          -0.00037507    -0.00026682     0.00322295
     61      3      O          -0.00008964     0.00146750    -0.00269641
     62      3      O          -0.00084480     0.00046469    -0.00918983
     63      3      O          -0.00034199    -0.00033568     0.00047961
     64      3      O           0.00026732     0.00080812     0.00191917
     65      3      O           0.00073242    -0.00060324    -0.00098648
     66      3      O           0.00027064    -0.00021793    -0.00165159
     67      3      O          -0.00381153     0.00258204    -0.00426142
     68      3      O           0.00076737     0.00122998     0.00453978
     69      3      O          -0.00116395     0.00031537     0.00263194
     70      3      O          -0.00302886     0.00547618     0.00408888
     71      1      Ca          0.00083608    -0.00049018     0.00086143
     72      1      Ca         -0.00023195    -0.00005357     0.00033943
     73      1      Ca          0.00026832     0.00081701     0.00131116
     74      1      Ca         -0.00007052    -0.00027453    -0.00090921
     75      2      Si         -0.00035943     0.00042434     0.00601378
     76      2      Si         -0.00078712    -0.00003199     0.00126880
     77      2      Si         -0.00062627    -0.00040498     0.00114064
     78      3      O          -0.00085355     0.00174837    -0.00036087
     79      3      O           0.00057079     0.00272999     0.00015495
     80      3      O          -0.00110496    -0.00137646    -0.00062437
     81      3      O          -0.00014618     0.00157789    -0.00109182
     82      3      O           0.00149079     0.00154175    -0.00052562
     83      3      O           0.00090887    -0.00045018    -0.00096266
     84      3      O           0.00131504     0.00034236    -0.00035423
     85      3      O           0.00194420     0.00320602     0.00793839
     86      3      O           0.00150354     0.00266870    -0.00244649
     87      3      O           0.00118896     0.00177893    -0.00101157
     88      3      O          -0.00003066     0.00273233    -0.00022116
     89      3      O          -0.00015947     0.00148421     0.00482155
     90      3      O           0.00629224    -0.00197092     0.00724989
     91      3      O          -0.00099239     0.00035655     0.00149862
     92      3      O           0.00143618     0.00215309     0.00078666
     93      3      O           0.00167349    -0.00469669     0.00052363
     94      1      Ca         -0.00079888    -0.00008665    -0.00726435
     95      4      H           0.00218547    -0.00007314    -0.00277245
     96      4      H          -0.00131786    -0.00098618     0.00031853
     97      4      H          -0.00030967    -0.00042995    -0.00017725
     98      4      H          -0.00107109     0.00157832     0.00082149
     99      4      H           0.00029903     0.00091615     0.00289410
    100      4      H           0.00063110     0.00047299    -0.00017987
    101      4      H           0.00112374    -0.00200308     0.00293409
    102      4      H           0.00084324    -0.00019735    -0.00065032
    103      4      H          -0.00163110     0.00158293     0.00105503
    104      4      H           0.00049891     0.00084438    -0.00007151
    105      4      H           0.00031569     0.00059757    -0.00007168
    106      4      H           0.00049564    -0.00122941    -0.00025169
    107      4      H          -0.00105073    -0.00009772     0.00018168
    108      4      H          -0.00016775    -0.00043262    -0.00392182
    109      4      H          -0.00003944     0.00023175     0.00079361
    110      4      H          -0.00010816     0.00013472    -0.00472079
    111      4      H           0.00211538    -0.00018579    -0.00256431
    112      4      H          -0.00112982    -0.00096928     0.00051132
    113      4      H          -0.00078276    -0.00092639    -0.00024088
    114      4      H          -0.00124998     0.00126675     0.00070849
    115      4      H           0.00036735     0.00085356     0.00308269
    116      4      H           0.00084088     0.00050123    -0.00031538
    117      4      H           0.00104644    -0.00244899     0.00289572
    118      4      H           0.00090138    -0.00043457    -0.00051741
    119      4      H          -0.00185320     0.00149929     0.00100365
    120      4      H           0.00059458     0.00076883    -0.00000992
    121      4      H           0.00032460     0.00051947    -0.00008287
    122      4      H           0.00052318    -0.00114476    -0.00028040
    123      4      H          -0.00120764     0.00006032     0.00056652
    124      4      H           0.00002400    -0.00031875    -0.00366546
    125      4      H          -0.00016217     0.00032909     0.00092369
    126      4      H          -0.00015648     0.00019887    -0.00480718
    127      4      H           0.00006170    -0.00003309     0.00021857
    128      4      H          -0.00008556     0.00003454     0.00015438
    129      4      H           0.00004848     0.00020867     0.00028292
    130      4      H           0.00000633    -0.00004070     0.00008223
    131      4      H           0.00012976    -0.00002574    -0.00001275
    132      4      H          -0.00056265    -0.00023323     0.00042958
    133      4      H           0.00008820    -0.00005837     0.00022832
    134      4      H          -0.00000811     0.00007497     0.00014822
    135      4      H           0.00002031     0.00013510     0.00039404
    136      4      H          -0.00000273    -0.00005631     0.00000900
    137      4      H           0.00003593    -0.00008456     0.00001052
    138      4      H          -0.00057865    -0.00023067     0.00038650
 SUM OF ATOMIC FORCES           0.01676618     0.04844511     0.02229111     0.05590105

 STRESS| Analytical stress tensor [GPa]
 STRESS|                        x                   y                   z
 STRESS|      x       -3.34691560352E-01   1.01063537334E-01  -6.39982760747E-02
 STRESS|      y        1.01063537334E-01  -4.24645931577E-01   4.52413505125E-02
 STRESS|      z       -6.39982760747E-02   4.52413505125E-02  -6.51487556907E-01
 STRESS| 1/3 Trace                                            -4.70275016279E-01
 STRESS| Determinant                                          -8.40996834217E-02

 STRESS| Eigenvectors and eigenvalues of the analytical stress tensor [GPa]
 STRESS|                        1                   2                   3
 STRESS| Eigenvalues  -6.81281144945E-01  -4.62828791841E-01  -2.66715112050E-01
 STRESS|      x           0.248651912047     -0.464671311856      0.849854574956
 STRESS|      y          -0.262289935829      0.812326326984      0.520893394134
 STRESS|      z           0.932403462133      0.352429440353     -0.080107885842

 OPT| **************************************************************************
 OPT| Step number                                                              0
 OPT| Optimization method                                                   BFGS
 OPT| Total energy [hartree]                                    -1761.2452186027
 OPT| Used time [s]                                                      136.892
 OPT| **************************************************************************
 OPT| Estimated peak process memory [MiB]                                    447

 --------------------------
 OPTIMIZATION STEP:      1
 --------------------------

 Number of electrons:                                                        656
 Number of occupied orbitals:                                                328
 Number of molecular orbitals:                                               328

 Number of orbital functions:                                               1460
 Number of independent orbital functions:                                   1460

 Extrapolation method: ASPC


 SCF WAVEFUNCTION OPTIMIZATION

  ----------------------------------- OT ---------------------------------------
  Minimizer      : DIIS                : direct inversion
                                         in the iterative subspace
                                         using   7 DIIS vectors
                                         safer DIIS on
  Preconditioner : FULL_KINETIC        : inversion of T + eS
  Precond_solver : DEFAULT
  stepsize       :    0.15000000                  energy_gap     :    0.20000000
  eps_taylor     :   0.10000E-15                  max_taylor     :             4
  ----------------------------------- OT ---------------------------------------

  Step     Update method      Time    Convergence         Total energy    Change
  ------------------------------------------------------------------------------
     1 OT DIIS     0.15E+00    1.0     0.00016192     -1761.2462503826 -1.76E+03
     2 OT DIIS     0.15E+00    1.7     0.00010638     -1761.2477815281 -1.53E-03
     3 OT DIIS     0.15E+00    1.7     0.00005643     -1761.2489993697 -1.22E-03
     4 OT DIIS     0.15E+00    1.7     0.00003111     -1761.2494992642 -5.00E-04
     5 OT DIIS     0.15E+00    1.9     0.00001987     -1761.2496676104 -1.68E-04
     6 OT DIIS     0.15E+00    1.7     0.00001338     -1761.2497378720 -7.03E-05
     7 OT DIIS     0.15E+00    1.7     0.00000841     -1761.2497726243 -3.48E-05
     8 OT DIIS     0.15E+00    1.7     0.00000534     -1761.2497860008 -1.34E-05
     9 OT DIIS     0.15E+00    1.9     0.00000376     -1761.2497904458 -4.45E-06
    10 OT DIIS     0.15E+00    1.9     0.00000245     -1761.2497929946 -2.55E-06
    11 OT DIIS     0.15E+00    1.7     0.00000163     -1761.2497941262 -1.13E-06
    12 OT DIIS     0.15E+00    1.7     0.00000113     -1761.2497946122 -4.86E-07
    13 OT DIIS     0.15E+00    1.9     0.00000076     -1761.2497948530 -2.41E-07
    14 OT DIIS     0.15E+00    1.7     0.00000048     -1761.2497949730 -1.20E-07
    15 OT DIIS     0.15E+00    1.7     0.00000034     -1761.2497950130 -4.00E-08
    16 OT DIIS     0.15E+00    1.7     0.00000024     -1761.2497950323 -1.93E-08
    17 OT DIIS     0.15E+00    1.9     0.00000017     -1761.2497950411 -8.78E-09
    18 OT DIIS     0.15E+00    1.7     0.00000013     -1761.2497950455 -4.38E-09
    19 OT DIIS     0.15E+00    1.7     0.00000009     -1761.2497950481 -2.57E-09

  *** SCF run converged in    19 steps ***


  Electronic density on regular grids:       -655.9999999993        0.0000000007
  Core density on regular grids:              655.9999999997       -0.0000000003
  Total charge density on r-space grids:        0.0000000003
  Total charge density g-space grids:           0.0000000003

  Overlap energy of the core charge distribution:               0.00000059793104
  Self energy of the core charge distribution:              -4144.80997841715816
  Core Hamiltonian energy:                                   1116.78154218016198
  Hartree energy:                                            1614.05013687957876
  Exchange-correlation energy:                               -346.78088335802113
  Dispersion energy:                                           -0.49061293054931

  Total energy:                                             -1761.24979504805697

  outer SCF iter =    1 RMS gradient =   0.90E-07 energy =      -1761.2497950481
  outer SCF loop converged in   1 iterations or   19 steps


 ENERGY| Total FORCE_EVAL ( QS ) energy [a.u.]:            -1761.249795049207478

 ATOMIC FORCES in [a.u.]

 # Atom   Kind   Element          X              Y              Z
      1      1      Ca         -0.00020442     0.00062763    -0.00194512
      2      1      Ca         -0.00023124    -0.00048716     0.00064824
      3      1      Ca         -0.00002967    -0.00046222    -0.00165441
      4      1      Ca         -0.00048897     0.00018354    -0.00050066
      5      2      Si          0.00039032     0.00063605     0.00125699
      6      2      Si          0.00160031     0.00055591    -0.00077152
      7      2      Si          0.00011533     0.00090636    -0.00067068
      8      3      O           0.00162605     0.00012040    -0.00220182
      9      3      O           0.00003057     0.00021763     0.00140395
     10      3      O           0.00008126     0.00031941     0.00125657
     11      3      O           0.00117475     0.00116044     0.00034094
     12      3      O          -0.00213896     0.00195647    -0.00249690
     13      3      O          -0.00084946    -0.00112226     0.00022946
     14      3      O          -0.00019057     0.00150262    -0.00275568
     15      3      O          -0.00032355    -0.00122940     0.00108989
     16      3      O          -0.00001727     0.00018870     0.00061885
     17      3      O           0.00055904     0.00000003     0.00257344
     18      3      O           0.00048785    -0.00014344    -0.00010332
     19      3      O          -0.00007837     0.00042819    -0.00145880
     20      3      O           0.00109880    -0.00052378    -0.00073929
     21      3      O          -0.00041264    -0.00105501     0.00024323
     22      3      O           0.00050865     0.00266833     0.00142593
     23      3      O           0.00165842    -0.00004769     0.00060959
     24      1      Ca         -0.00059552     0.00092917    -0.00031264
     25      1      Ca         -0.00058569    -0.00039491    -0.00010798
     26      1      Ca          0.00005665    -0.00018297    -0.00025190
     27      1      Ca          0.00015011     0.00041751     0.00001509
     28      2      Si          0.00076101     0.00019717     0.00061395
     29      2      Si          0.00086397     0.00080271    -0.00065461
     30      2      Si          0.00009837     0.00034214    -0.00006137
     31      3      O          -0.00042031     0.00032952     0.00114327
     32      3      O          -0.00033403     0.00011048     0.00082657
     33      3      O          -0.00015126    -0.00039963     0.00040609
     34      3      O          -0.00065082     0.00011198     0.00114204
     35      3      O           0.00066403    -0.00190349    -0.00015037
     36      3      O           0.00140619     0.00092905    -0.00092780
     37      3      O          -0.00114318     0.00011200     0.00178455
     38      3      O           0.00083527     0.00087122     0.00134486
     39      3      O           0.00138018     0.00033398     0.00079848
     40      3      O          -0.00052892     0.00022226     0.00014710
     41      3      O           0.00093460    -0.00036392     0.00053212
     42      3      O           0.00040660     0.00062975    -0.00039651
     43      3      O          -0.00268574     0.00056704    -0.00201680
     44      3      O          -0.00004567     0.00078909    -0.00080367
     45      3      O          -0.00003688    -0.00193062    -0.00225422
     46      3      O          -0.00116931     0.00411540    -0.00251079
     47      1      Ca          0.00116235     0.00051146    -0.00021797
     48      1      Ca         -0.00022912     0.00060394    -0.00193813
     49      1      Ca         -0.00017240    -0.00055559     0.00067633
     50      1      Ca         -0.00009969    -0.00047750    -0.00160706
     51      1      Ca         -0.00044720     0.00028077    -0.00044052
     52      2      Si          0.00040825     0.00070275     0.00102983
     53      2      Si          0.00157300     0.00065034    -0.00078113
     54      2      Si         -0.00003127     0.00094998    -0.00042018
     55      3      O           0.00154531     0.00005363    -0.00223885
     56      3      O           0.00003583     0.00027602     0.00142221
     57      3      O           0.00009326     0.00021014     0.00113528
     58      3      O           0.00130759     0.00107881     0.00032482
     59      3      O          -0.00210582     0.00181341    -0.00215916
     60      3      O          -0.00085765    -0.00105959     0.00021270
     61      3      O          -0.00002786     0.00132850    -0.00269188
     62      3      O          -0.00026816    -0.00123780     0.00113215
     63      3      O          -0.00022607     0.00013568     0.00058859
     64      3      O           0.00075330     0.00001592     0.00253526
     65      3      O           0.00044493    -0.00013412    -0.00016527
     66      3      O          -0.00004588     0.00041742    -0.00150778
     67      3      O           0.00078448    -0.00077085    -0.00121340
     68      3      O           0.00057242    -0.00058669    -0.00161343
     69      3      O           0.00045868     0.00279288     0.00137495
     70      3      O           0.00074740    -0.00239332     0.00044576
     71      1      Ca         -0.00058149     0.00110060    -0.00034937
     72      1      Ca         -0.00074645    -0.00024705     0.00025637
     73      1      Ca          0.00005856     0.00003758    -0.00024872
     74      1      Ca          0.00021471     0.00051833    -0.00000746
     75      2      Si          0.00070125     0.00035670     0.00073293
     76      2      Si          0.00088267     0.00112541    -0.00038738
     77      2      Si         -0.00002241     0.00066628    -0.00009271
     78      3      O          -0.00023449     0.00039738     0.00125175
     79      3      O          -0.00024859    -0.00069795     0.00063703
     80      3      O          -0.00013776    -0.00022436     0.00025234
     81      3      O          -0.00045738     0.00011385     0.00102556
     82      3      O           0.00053970    -0.00215457    -0.00010957
     83      3      O           0.00122564     0.00118156    -0.00096770
     84      3      O          -0.00119295     0.00019477     0.00173496
     85      3      O           0.00067604     0.00092379     0.00109029
     86      3      O           0.00155149    -0.00023829     0.00120778
     87      3      O          -0.00059608     0.00015009     0.00001585
     88      3      O           0.00098836    -0.00081617     0.00043172
     89      3      O           0.00036420     0.00042456    -0.00017669
     90      3      O          -0.00301042     0.00080063    -0.00195791
     91      3      O           0.00006911     0.00088911    -0.00075853
     92      3      O           0.00026816    -0.00204018    -0.00210020
     93      3      O          -0.00170592     0.00405653    -0.00277413
     94      1      Ca          0.00096544     0.00061188    -0.00016369
     95      4      H          -0.00109134     0.00038257    -0.00158403
     96      4      H           0.00007807     0.00011854     0.00013054
     97      4      H          -0.00118379    -0.00108278     0.00092547
     98      4      H          -0.00040382     0.00047793     0.00113286
     99      4      H           0.00028351     0.00011853     0.00120458
    100      4      H          -0.00023439    -0.00013408     0.00084614
    101      4      H          -0.00061216     0.00123435     0.00048469
    102      4      H          -0.00039556     0.00162461     0.00178458
    103      4      H           0.00211385     0.00207336     0.00074733
    104      4      H           0.00110581    -0.00132879     0.00254624
    105      4      H           0.00006629    -0.00005761     0.00049590
    106      4      H           0.00015426    -0.00072063     0.00029302
    107      4      H           0.00043898     0.00120517    -0.00038069
    108      4      H          -0.00131721    -0.00037055     0.00008407
    109      4      H           0.00072015    -0.00236845    -0.00082995
    110      4      H           0.00033838    -0.00083203     0.00142590
    111      4      H          -0.00112226     0.00027383    -0.00105194
    112      4      H           0.00041328     0.00026408     0.00039050
    113      4      H          -0.00019906    -0.00041277     0.00125461
    114      4      H          -0.00057530     0.00149018     0.00159215
    115      4      H           0.00034930     0.00002951     0.00125171
    116      4      H          -0.00011645    -0.00017878     0.00077587
    117      4      H          -0.00103472     0.00121905    -0.00020790
    118      4      H          -0.00093624     0.00196844     0.00155571
    119      4      H           0.00200527     0.00210326     0.00070985
    120      4      H           0.00126618    -0.00138120     0.00261876
    121      4      H           0.00004274    -0.00013634     0.00047942
    122      4      H           0.00018060    -0.00065968     0.00016127
    123      4      H           0.00015297     0.00139169    -0.00006072
    124      4      H          -0.00130661    -0.00031351     0.00024984
    125      4      H           0.00074853    -0.00237309    -0.00076489
    126      4      H           0.00039842    -0.00066912     0.00161650
    127      4      H           0.00006291    -0.00047957     0.00039167
    128      4      H          -0.00005243    -0.00000614    -0.00006669
    129      4      H          -0.00025861    -0.00000568    -0.00066072
    130      4      H           0.00020770     0.00029301    -0.00009316
    131      4      H          -0.00003935     0.00038220     0.00020275
    132      4      H           0.00015349     0.00006261     0.00089195
    133      4      H           0.00007469    -0.00043209     0.00050872
    134      4      H          -0.00001816    -0.00004289    -0.00009694
    135      4      H          -0.00029580    -0.00005525    -0.00060946
    136      4      H           0.00010547     0.00047720    -0.00006576
    137      4      H          -0.00005229     0.00041029     0.00016034
    138      4      H           0.00011138     0.00009719     0.00089096
 SUM OF ATOMIC FORCES           0.00884958     0.02842894     0.00846104     0.03095333

 STRESS| Analytical stress tensor [GPa]
 STRESS|                        x                   y                   z
 STRESS|      x       -2.63847170646E-01   4.65648815606E-02   5.53503601421E-02
 STRESS|      y        4.65648815606E-02  -4.35254333787E-01  -1.19701756607E-02
 STRESS|      z        5.53503601421E-02  -1.19701756607E-02  -9.15522889986E-01
 STRESS| 1/3 Trace                                            -5.38208131473E-01
 STRESS| Determinant                                          -1.01844528700E-01

 STRESS| Eigenvectors and eigenvalues of the analytical stress tensor [GPa]
 STRESS|                        1                   2                   3
 STRESS| Eigenvalues  -9.20710899669E-01  -4.45769115265E-01  -2.48144379486E-01
 STRESS|      x          -0.086232012222     -0.232704069957      0.968717118613
 STRESS|      y           0.032823733604      0.971147542722      0.236209764358
 STRESS|      z           0.995734222863     -0.052165755926      0.076105790372

 OPT| **************************************************************************
 OPT| Step number                                                              1
 OPT| Optimization method                                                   BFGS
 OPT| Total energy [hartree]                                    -1761.2497950492
 OPT| Effective energy change [hartree]                            -0.0045764465
 OPT| Predicted energy change [hartree]                            -0.0049738036
 OPT| Scaling factor                                                0.0000000000
 OPT| Step size                                                     0.0647586352
 OPT| Trust radius                                                  0.3779452266
 OPT| Decrease in energy                                                     YES
 OPT| Used time [s]                                                       36.883
 OPT|
 OPT| Maximum step size                                             0.0647586352
 OPT| Convergence limit for maximum step size                       0.0030000000
 OPT| Maximum step size is converged                                          NO
 OPT|
 OPT| RMS step size                                                 0.0139715687
 OPT| Convergence limit for RMS step size                           0.0015000000
 OPT| RMS step size is converged                                              NO
 OPT|
 OPT| Maximum gradient                                              0.0041153987
 OPT| Convergence limit for maximum gradient                        0.0004500000
 OPT| Maximum gradient is converged                                           NO
 OPT|
 OPT| RMS gradient                                                  0.0010389698
 OPT| Convergence limit for RMS gradient                            0.0003000000
 OPT| RMS gradient is converged                                               NO
 OPT| **************************************************************************
 OPT| Estimated peak process memory after this step [MiB]                    509

 --------------------------
 OPTIMIZATION STEP:      2
 --------------------------

 Number of electrons:                                                        656
 Number of occupied orbitals:                                                328
 Number of molecular orbitals:                                               328

 Number of orbital functions:                                               1460
 Number of independent orbital functions:                                   1460

 Extrapolation method: ASPC


 SCF WAVEFUNCTION OPTIMIZATION

  ----------------------------------- OT ---------------------------------------
  Minimizer      : DIIS                : direct inversion
                                         in the iterative subspace
                                         using   7 DIIS vectors
                                         safer DIIS on
  Preconditioner : FULL_KINETIC        : inversion of T + eS
  Precond_solver : DEFAULT
  stepsize       :    0.15000000                  energy_gap     :    0.20000000
  eps_taylor     :   0.10000E-15                  max_taylor     :             4
  ----------------------------------- OT ---------------------------------------

  Step     Update method      Time    Convergence         Total energy    Change
  ------------------------------------------------------------------------------
     1 OT DIIS     0.15E+00    1.0     0.00018291     -1761.2472258900 -1.76E+03
     2 OT DIIS     0.15E+00    1.7     0.00011886     -1761.2491715909 -1.95E-03
     3 OT DIIS     0.15E+00    1.7     0.00006157     -1761.2506701900 -1.50E-03
     4 OT DIIS     0.15E+00    1.8     0.00003301     -1761.2512522048 -5.82E-04
     5 OT DIIS     0.15E+00    1.7     0.00002143     -1761.2514319521 -1.80E-04
     6 OT DIIS     0.15E+00    1.7     0.00001476     -1761.2515075751 -7.56E-05
     7 OT DIIS     0.15E+00    1.7     0.00000910     -1761.2515499535 -4.24E-05
     8 OT DIIS     0.15E+00    1.9     0.00000573     -1761.2515656703 -1.57E-05
     9 OT DIIS     0.15E+00    1.7     0.00000399     -1761.2515707756 -5.11E-06
    10 OT DIIS     0.15E+00    1.7     0.00000256     -1761.2515736307 -2.86E-06
    11 OT DIIS     0.15E+00    2.0     0.00000169     -1761.2515748453 -1.21E-06
    12 OT DIIS     0.15E+00    1.8     0.00000118     -1761.2515753593 -5.14E-07
    13 OT DIIS     0.15E+00    1.7     0.00000081     -1761.2515756188 -2.59E-07
    14 OT DIIS     0.15E+00    1.7     0.00000052     -1761.2515757514 -1.33E-07
    15 OT DIIS     0.15E+00    1.7     0.00000037     -1761.2515757964 -4.49E-08
    16 OT DIIS     0.15E+00    1.9     0.00000026     -1761.2515758190 -2.26E-08
    17 OT DIIS     0.15E+00    1.7     0.00000019     -1761.2515758293 -1.03E-08
    18 OT DIIS     0.15E+00    1.7     0.00000014     -1761.2515758347 -5.40E-09
    19 OT DIIS     0.15E+00    1.7     0.00000010     -1761.2515758377 -3.04E-09

  *** SCF run converged in    19 steps ***


  Electronic density on regular grids:       -655.9999999993        0.0000000007
  Core density on regular grids:              655.9999999997       -0.0000000003
  Total charge density on r-space grids:        0.0000000004
  Total charge density g-space grids:           0.0000000003

  Overlap energy of the core charge distribution:               0.00000059375176
  Self energy of the core charge distribution:              -4144.80997841715816
  Core Hamiltonian energy:                                   1116.72772035900516
  Hartree energy:                                            1614.09055782411065
  Exchange-correlation energy:                               -346.76931597159432
  Dispersion energy:                                           -0.49056022582752

  Total energy:                                             -1761.25157583771238

  outer SCF iter =    1 RMS gradient =   0.99E-07 energy =      -1761.2515758377
  outer SCF loop converged in   1 iterations or   19 steps


 ENERGY| Total FORCE_EVAL ( QS ) energy [a.u.]:            -1761.251575839108227

 ATOMIC FORCES in [a.u.]

 # Atom   Kind   Element          X              Y              Z
      1      1      Ca          0.00019237     0.00078485    -0.00123338
      2      1      Ca          0.00015146     0.00022505     0.00039241
      3      1      Ca          0.00019277    -0.00026573    -0.00105047
      4      1      Ca          0.00012045     0.00015162    -0.00065525
      5      2      Si          0.00024740    -0.00014042     0.00073532
      6      2      Si          0.00033881     0.00044772     0.00041339
      7      2      Si         -0.00094730     0.00037621    -0.00024806
      8      3      O           0.00082172     0.00130221    -0.00144717
      9      3      O          -0.00053437     0.00031794     0.00064498
     10      3      O          -0.00005088     0.00000603     0.00008367
     11      3      O           0.00061951     0.00040986    -0.00040241
     12      3      O           0.00029028     0.00090074    -0.00270385
     13      3      O          -0.00018326     0.00043164     0.00010372
     14      3      O           0.00033421     0.00116568    -0.00130641
     15      3      O          -0.00040917     0.00013753     0.00144963
     16      3      O          -0.00038360    -0.00013418     0.00037498
     17      3      O           0.00075027    -0.00026136     0.00139804
     18      3      O          -0.00005258    -0.00010780    -0.00023011
     19      3      O           0.00029801     0.00070156    -0.00115158
     20      3      O           0.00181210    -0.00073921     0.00221691
     21      3      O           0.00051786     0.00044196    -0.00009146
     22      3      O           0.00004183    -0.00050102     0.00102625
     23      3      O           0.00032929    -0.00050997    -0.00183320
     24      1      Ca         -0.00014724     0.00088583     0.00034636
     25      1      Ca          0.00000117     0.00034880     0.00025600
     26      1      Ca          0.00026245     0.00046668     0.00005865
     27      1      Ca          0.00062783     0.00042777     0.00049607
     28      2      Si          0.00013858     0.00043824    -0.00127576
     29      2      Si         -0.00014045     0.00020502    -0.00014331
     30      2      Si         -0.00015434     0.00013147     0.00006178
     31      3      O          -0.00095341    -0.00063791    -0.00011532
     32      3      O          -0.00019397    -0.00047998     0.00004109
     33      3      O          -0.00018823    -0.00044614     0.00048136
     34      3      O          -0.00018151    -0.00028420     0.00017767
     35      3      O           0.00042118    -0.00050485     0.00059279
     36      3      O           0.00165673    -0.00020231     0.00010669
     37      3      O          -0.00037677    -0.00022583     0.00067392
     38      3      O           0.00046508    -0.00063266    -0.00031161
     39      3      O          -0.00008631    -0.00018602     0.00017556
     40      3      O          -0.00048520    -0.00057415    -0.00043008
     41      3      O           0.00043375    -0.00043068     0.00037065
     42      3      O           0.00019916    -0.00035379    -0.00133147
     43      3      O          -0.00043346     0.00179982    -0.00111942
     44      3      O           0.00010697     0.00003039     0.00016381
     45      3      O           0.00012725     0.00119484    -0.00100864
     46      3      O           0.00023399     0.00057968     0.00094061
     47      1      Ca          0.00048169     0.00066626     0.00055042
     48      1      Ca          0.00013416     0.00072943    -0.00133062
     49      1      Ca          0.00010530     0.00036255     0.00030114
     50      1      Ca          0.00015487    -0.00018434    -0.00115053
     51      1      Ca          0.00017141    -0.00001360    -0.00058674
     52      2      Si          0.00034272    -0.00015323     0.00055931
     53      2      Si          0.00034252     0.00028475     0.00031633
     54      2      Si         -0.00079944     0.00042057    -0.00037239
     55      3      O           0.00077654     0.00122545    -0.00156056
     56      3      O          -0.00049669     0.00027305     0.00057765
     57      3      O           0.00013726     0.00016425    -0.00004719
     58      3      O           0.00064550     0.00052944    -0.00049877
     59      3      O           0.00015535     0.00107429    -0.00265707
     60      3      O          -0.00033996     0.00043242     0.00020813
     61      3      O           0.00037372     0.00118788    -0.00156281
     62      3      O          -0.00047635     0.00036048     0.00127043
     63      3      O          -0.00039925    -0.00005695     0.00045100
     64      3      O           0.00071950    -0.00020325     0.00133823
     65      3      O           0.00005463    -0.00007950    -0.00021671
     66      3      O           0.00027703     0.00071562    -0.00111963
     67      3      O           0.00208467    -0.00039678     0.00161782
     68      3      O           0.00048831    -0.00070890    -0.00082697
     69      3      O           0.00015831    -0.00020246     0.00095467
     70      3      O           0.00054908    -0.00104885    -0.00117115
     71      1      Ca         -0.00006533     0.00087570     0.00031196
     72      1      Ca          0.00003096     0.00013818     0.00044916
     73      1      Ca          0.00013776     0.00029668     0.00010072
     74      1      Ca          0.00067200     0.00031090     0.00054529
     75      2      Si          0.00007348     0.00052586    -0.00126725
     76      2      Si         -0.00022931     0.00018058    -0.00000520
     77      2      Si         -0.00015623    -0.00003437     0.00027493
     78      3      O          -0.00086039    -0.00073515    -0.00009752
     79      3      O           0.00021188    -0.00080620    -0.00002780
     80      3      O          -0.00005872    -0.00033332     0.00045636
     81      3      O          -0.00010020    -0.00017049     0.00008486
     82      3      O           0.00040936    -0.00056599     0.00044684
     83      3      O           0.00143685     0.00028488     0.00015503
     84      3      O          -0.00016964    -0.00006267     0.00043360
     85      3      O           0.00048167    -0.00061153    -0.00034272
     86      3      O          -0.00025865     0.00000629    -0.00002921
     87      3      O          -0.00051573    -0.00039986    -0.00053415
     88      3      O           0.00006012    -0.00034586     0.00021918
     89      3      O           0.00010974    -0.00036931    -0.00104020
     90      3      O          -0.00056242     0.00188441    -0.00126673
     91      3      O           0.00015465    -0.00000237     0.00019870
     92      3      O           0.00027766     0.00102492    -0.00127442
     93      3      O           0.00035726     0.00056392     0.00090663
     94      1      Ca          0.00037310     0.00064867     0.00066708
     95      4      H          -0.00187549     0.00033901    -0.00141765
     96      4      H           0.00045478     0.00028176    -0.00017751
     97      4      H          -0.00167847    -0.00115973     0.00090210
     98      4      H          -0.00027246    -0.00031054     0.00071319
     99      4      H           0.00031064     0.00076521     0.00103505
    100      4      H           0.00020541     0.00043234     0.00079039
    101      4      H          -0.00048475     0.00120474     0.00102703
    102      4      H           0.00000786     0.00082892     0.00199895
    103      4      H           0.00061882    -0.00094912     0.00172567
    104      4      H           0.00020014     0.00030065     0.00048674
    105      4      H           0.00001102    -0.00026238     0.00028535
    106      4      H          -0.00004946     0.00009763     0.00010303
    107      4      H          -0.00011944     0.00001375    -0.00022824
    108      4      H          -0.00040907    -0.00093380     0.00000971
    109      4      H          -0.00019158    -0.00015686    -0.00083231
    110      4      H           0.00044561    -0.00023749    -0.00059461
    111      4      H          -0.00171932     0.00037042    -0.00136098
    112      4      H           0.00002283     0.00010719     0.00022909
    113      4      H          -0.00015497     0.00044195     0.00078713
    114      4      H          -0.00045650     0.00069344     0.00080495
    115      4      H           0.00033243     0.00073763     0.00100476
    116      4      H           0.00024192     0.00039697     0.00073428
    117      4      H          -0.00087957     0.00080269     0.00085879
    118      4      H          -0.00053172     0.00054087     0.00126471
    119      4      H           0.00050599    -0.00096645     0.00182519
    120      4      H           0.00034756     0.00036033     0.00057747
    121      4      H          -0.00001308    -0.00023755     0.00028252
    122      4      H          -0.00003312     0.00014553     0.00003827
    123      4      H          -0.00031537     0.00014469     0.00003312
    124      4      H          -0.00038054    -0.00092309     0.00018885
    125      4      H          -0.00030035    -0.00008895    -0.00086051
    126      4      H           0.00034721    -0.00011767    -0.00062481
    127      4      H           0.00002650    -0.00046555     0.00081804
    128      4      H          -0.00006568    -0.00024858    -0.00027933
    129      4      H          -0.00011964    -0.00008527    -0.00113038
    130      4      H           0.00021915     0.00054377     0.00012537
    131      4      H          -0.00009484     0.00019745     0.00037829
    132      4      H           0.00039249     0.00031604     0.00061360
    133      4      H           0.00001657    -0.00038622     0.00086936
    134      4      H          -0.00008890    -0.00030217    -0.00034254
    135      4      H          -0.00015601    -0.00013251    -0.00113293
    136      4      H           0.00010703     0.00059810     0.00014758
    137      4      H          -0.00005935     0.00010263     0.00027213
    138      4      H           0.00031084     0.00031684     0.00068656
 SUM OF ATOMIC FORCES           0.00795635     0.01749001     0.00273793     0.01940877

 STRESS| Analytical stress tensor [GPa]
 STRESS|                        x                   y                   z
 STRESS|      x       -3.15229502179E-01   4.76000054745E-02   3.53406871264E-02
 STRESS|      y        4.76000054745E-02  -4.76916901636E-01  -1.17758390889E-02
 STRESS|      z        3.53406871264E-02  -1.17758390889E-02  -9.71933824725E-01
 STRESS| 1/3 Trace                                            -5.88026742847E-01
 STRESS| Determinant                                          -1.43316941662E-01

 STRESS| Eigenvectors and eigenvalues of the analytical stress tensor [GPa]
 STRESS|                        1                   2                   3
 STRESS| Eigenvalues  -9.74244712088E-01  -4.89015285682E-01  -3.00820230771E-01
 STRESS|      x          -0.055612348735     -0.255927320978      0.965095059072
 STRESS|      y           0.028954380109      0.965771026310      0.257775034891
 STRESS|      z           0.998032519781     -0.042279204317      0.046298578182

 OPT| **************************************************************************
 OPT| Step number                                                              2
 OPT| Optimization method                                                   BFGS
 OPT| Total energy [hartree]                                    -1761.2515758391
 OPT| Effective energy change [hartree]                            -0.0017807899
 OPT| Predicted energy change [hartree]                            -0.0013740169
 OPT| Scaling factor                                                0.0000000000
 OPT| Step size                                                     0.0252072856
 OPT| Trust radius                                                  0.3779452266
 OPT| Decrease in energy                                                     YES
 OPT| Used time [s]                                                       36.863
 OPT|
 OPT| Maximum step size                                             0.0252072856
 OPT| Convergence limit for maximum step size                       0.0030000000
 OPT| Maximum step size is converged                                          NO
 OPT|
 OPT| RMS step size                                                 0.0082560917
 OPT| Convergence limit for RMS step size                           0.0015000000
 OPT| RMS step size is converged                                              NO
 OPT|
 OPT| Maximum gradient                                              0.0027038482
 OPT| Convergence limit for maximum gradient                        0.0004500000
 OPT| Maximum gradient is converged                                           NO
 OPT|
 OPT| RMS gradient                                                  0.0006841554
 OPT| Convergence limit for RMS gradient                            0.0003000000
 OPT| RMS gradient is converged                                               NO
 OPT| **************************************************************************
 OPT| Estimated peak process memory after this step [MiB]                    509

 --------------------------
 OPTIMIZATION STEP:      3
 --------------------------

 Number of electrons:                                                        656
 Number of occupied orbitals:                                                328
 Number of molecular orbitals:                                               328

 Number of orbital functions:                                               1460
 Number of independent orbital functions:                                   1460

 Extrapolation method: ASPC


 SCF WAVEFUNCTION OPTIMIZATION

  ----------------------------------- OT ---------------------------------------
  Minimizer      : DIIS                : direct inversion
                                         in the iterative subspace
                                         using   7 DIIS vectors
                                         safer DIIS on
  Preconditioner : FULL_KINETIC        : inversion of T + eS
  Precond_solver : DEFAULT
  stepsize       :    0.15000000                  energy_gap     :    0.20000000
  eps_taylor     :   0.10000E-15                  max_taylor     :             4
  ----------------------------------- OT ---------------------------------------

  Step     Update method      Time    Convergence         Total energy    Change
  ------------------------------------------------------------------------------
     1 OT DIIS     0.15E+00    1.0     0.00011838     -1761.2506968964 -1.76E+03
     2 OT DIIS     0.15E+00    1.7     0.00007563     -1761.2515066611 -8.10E-04
     3 OT DIIS     0.15E+00    1.8     0.00003799     -1761.2521002948 -5.94E-04
     4 OT DIIS     0.15E+00    1.7     0.00001993     -1761.2523150548 -2.15E-04
     5 OT DIIS     0.15E+00    1.7     0.00001288     -1761.2523789310 -6.39E-05
     6 OT DIIS     0.15E+00    1.7     0.00000884     -1761.2524059721 -2.70E-05
     7 OT DIIS     0.15E+00    1.9     0.00000545     -1761.2524211282 -1.52E-05
     8 OT DIIS     0.15E+00    1.7     0.00000344     -1761.2524267283 -5.60E-06
     9 OT DIIS     0.15E+00    1.7     0.00000241     -1761.2524285585 -1.83E-06
    10 OT DIIS     0.15E+00    1.7     0.00000155     -1761.2524295830 -1.02E-06
    11 OT DIIS     0.15E+00    1.9     0.00000101     -1761.2524300344 -4.51E-07
    12 OT DIIS     0.15E+00    2.0     0.00000071     -1761.2524302141 -1.80E-07
    13 OT DIIS     0.15E+00    1.7     0.00000049     -1761.2524303065 -9.24E-08
    14 OT DIIS     0.15E+00    1.7     0.00000031     -1761.2524303564 -4.99E-08
    15 OT DIIS     0.15E+00    1.9     0.00000022     -1761.2524303733 -1.68E-08
    16 OT DIIS     0.15E+00    1.7     0.00000016     -1761.2524303817 -8.42E-09
    17 OT DIIS     0.15E+00    1.7     0.00000012     -1761.2524303857 -3.97E-09
    18 OT DIIS     0.15E+00    1.7     0.00000009     -1761.2524303878 -2.11E-09

  *** SCF run converged in    18 steps ***


  Electronic density on regular grids:       -655.9999999993        0.0000000007
  Core density on regular grids:              655.9999999997       -0.0000000003
  Total charge density on r-space grids:        0.0000000004
  Total charge density g-space grids:           0.0000000004

  Overlap energy of the core charge distribution:               0.00000059015757
  Self energy of the core charge distribution:              -4144.80997841715816
  Core Hamiltonian energy:                                   1116.66363655926330
  Hartree energy:                                            1614.13811837871845
  Exchange-correlation energy:                               -346.75369848809117
  Dispersion energy:                                           -0.49050901067394

  Total energy:                                             -1761.25243038778444

  outer SCF iter =    1 RMS gradient =   0.86E-07 energy =      -1761.2524303878
  outer SCF loop converged in   1 iterations or   18 steps


 ENERGY| Total FORCE_EVAL ( QS ) energy [a.u.]:            -1761.252430388993389

 ATOMIC FORCES in [a.u.]

 # Atom   Kind   Element          X              Y              Z
      1      1      Ca          0.00028350     0.00035818     0.00009992
      2      1      Ca          0.00008560     0.00049367     0.00036471
      3      1      Ca          0.00015280     0.00026422     0.00009777
      4      1      Ca          0.00012226    -0.00006032     0.00010628
      5      2      Si         -0.00009610    -0.00010524    -0.00079148
      6      2      Si         -0.00014179     0.00074533     0.00160844
      7      2      Si         -0.00074573    -0.00059465     0.00057233
      8      3      O           0.00050602     0.00126392     0.00094831
      9      3      O          -0.00026788     0.00004716    -0.00063183
     10      3      O          -0.00072100    -0.00045250    -0.00138090
     11      3      O          -0.00027730    -0.00100768     0.00022027
     12      3      O           0.00162490    -0.00142547     0.00024929
     13      3      O           0.00035799     0.00248972     0.00032312
     14      3      O          -0.00091709    -0.00068001     0.00153164
     15      3      O           0.00010508    -0.00012229     0.00098165
     16      3      O           0.00010967    -0.00031060    -0.00001683
     17      3      O           0.00036596     0.00057365    -0.00101056
     18      3      O          -0.00024953     0.00011981    -0.00054250
     19      3      O           0.00044735     0.00113550     0.00009395
     20      3      O           0.00120288    -0.00021801     0.00203790
     21      3      O           0.00056376     0.00160645     0.00046597
     22      3      O          -0.00002004    -0.00128624    -0.00109420
     23      3      O          -0.00017772    -0.00038597    -0.00136111
     24      1      Ca          0.00003281    -0.00009178    -0.00003815
     25      1      Ca          0.00011325     0.00041005     0.00037408
     26      1      Ca          0.00000225     0.00066423    -0.00049988
     27      1      Ca          0.00034747    -0.00002591     0.00076729
     28      2      Si          0.00065942     0.00001086    -0.00152333
     29      2      Si         -0.00012850    -0.00046452    -0.00010965
     30      2      Si          0.00053652     0.00025843    -0.00096875
     31      3      O          -0.00019890     0.00010275    -0.00046259
     32      3      O           0.00021349     0.00006671    -0.00031763
     33      3      O           0.00002882     0.00010007    -0.00003331
     34      3      O           0.00001073     0.00005277    -0.00034288
     35      3      O          -0.00031734    -0.00002520     0.00002485
     36      3      O          -0.00048822    -0.00164931     0.00082828
     37      3      O          -0.00018790    -0.00109591     0.00032012
     38      3      O          -0.00048038    -0.00023075    -0.00082257
     39      3      O          -0.00011736     0.00013962    -0.00037346
     40      3      O          -0.00048732    -0.00050688    -0.00014501
     41      3      O          -0.00050299     0.00012589    -0.00037858
     42      3      O          -0.00006836    -0.00022962    -0.00092633
     43      3      O          -0.00033232     0.00095727    -0.00115083
     44      3      O           0.00028184    -0.00039547     0.00035185
     45      3      O           0.00061561     0.00066072    -0.00039071
     46      3      O          -0.00037119    -0.00067273     0.00096522
     47      1      Ca         -0.00029832     0.00030212     0.00012068
     48      1      Ca          0.00040620     0.00040648     0.00003069
     49      1      Ca          0.00008742     0.00055555     0.00041241
     50      1      Ca          0.00021224     0.00031611     0.00006994
     51      1      Ca          0.00007154    -0.00005399     0.00016141
     52      2      Si         -0.00024425    -0.00002146    -0.00063746
     53      2      Si         -0.00016187     0.00070698     0.00147319
     54      2      Si         -0.00081719    -0.00038050     0.00048918
     55      3      O           0.00043515     0.00129068     0.00093970
     56      3      O          -0.00026065     0.00005494    -0.00085785
     57      3      O          -0.00048844    -0.00040780    -0.00124197
     58      3      O          -0.00050750    -0.00102122     0.00011322
     59      3      O           0.00169374    -0.00103772    -0.00075242
     60      3      O           0.00038577     0.00250474     0.00025132
     61      3      O          -0.00093442    -0.00051698     0.00143051
     62      3      O          -0.00010950    -0.00007176     0.00097191
     63      3      O           0.00022346    -0.00033178     0.00000617
     64      3      O           0.00040938     0.00051678    -0.00115190
     65      3      O          -0.00022837     0.00007907    -0.00060172
     66      3      O           0.00040341     0.00108044     0.00011404
     67      3      O           0.00167652     0.00019941     0.00161804
     68      3      O          -0.00042205     0.00004933     0.00051056
     69      3      O          -0.00004514    -0.00148636    -0.00115151
     70      3      O           0.00020799     0.00025573    -0.00068897
     71      1      Ca          0.00009622    -0.00005780    -0.00001258
     72      1      Ca          0.00009721     0.00029821     0.00019962
     73      1      Ca          0.00004873     0.00055268    -0.00044354
     74      1      Ca          0.00022433     0.00004447     0.00063977
     75      2      Si          0.00049974     0.00005831    -0.00138479
     76      2      Si          0.00002563    -0.00047922    -0.00013600
     77      2      Si          0.00051760     0.00043964    -0.00095046
     78      3      O          -0.00025029     0.00011175    -0.00052101
     79      3      O          -0.00017259     0.00042636    -0.00015230
     80      3      O           0.00005822     0.00007915     0.00007856
     81      3      O          -0.00000262     0.00006382    -0.00046073
     82      3      O          -0.00030347    -0.00017354    -0.00001842
     83      3      O          -0.00001488    -0.00141241     0.00074894
     84      3      O          -0.00008267    -0.00085035     0.00007385
     85      3      O          -0.00042368    -0.00029704    -0.00080012
     86      3      O           0.00000001    -0.00013052    -0.00041174
     87      3      O          -0.00050486    -0.00061190    -0.00007455
     88      3      O          -0.00056010     0.00002708    -0.00020149
     89      3      O          -0.00008488    -0.00026922    -0.00094132
     90      3      O          -0.00030819     0.00047172    -0.00110891
     91      3      O           0.00027069    -0.00038360     0.00024467
     92      3      O           0.00057434     0.00070975    -0.00052028
     93      3      O          -0.00038154    -0.00074832     0.00097392
     94      1      Ca         -0.00015027     0.00028354     0.00025715
     95      4      H          -0.00148070     0.00002401    -0.00061376
     96      4      H           0.00050075     0.00011172    -0.00008399
     97      4      H          -0.00146100    -0.00105836     0.00035670
[...]
 flops   421 x    32 x    62         123017681920       0.0%    100.0%      0.0%     
 flops    96 x    32 x    50         126885888000       0.0%    100.0%      0.0%     
 flops     5 x    32 x     5         127280384000       0.0%    100.0%      0.0%     
 flops     5 x    13 x    32         133545984000       0.0%    100.0%      0.0%     
 flops    13 x     5 x    32         133545984000       0.0%    100.0%      0.0%     
 flops   104 x    32 x    50         137459712000       0.0%    100.0%      0.0%     
 flops   390 x    32 x    50         137854080000       0.0%    100.0%      0.0%     
 flops    64 x    32 x    62         139856445440       0.0%    100.0%      0.0%     
 flops    14 x    32 x     5         145793894400       0.0%    100.0%      0.0%     
 flops     5 x    32 x    14         145793894400       0.0%    100.0%      0.0%     
 flops   313 x    32 x    57         147146858880       0.0%    100.0%      0.0%     
 flops   421 x    32 x    50         148811712000       0.0%    100.0%      0.0%     
 flops    14 x    13 x    32         152970854400       0.0%    100.0%      0.0%     
 flops    13 x    14 x    32         152970854400       0.0%    100.0%      0.0%     
 flops   336 x    32 x    57         157959567360       0.0%    100.0%      0.0%     
 flops    14 x    32 x    14         167000279040       0.0%    100.0%      0.0%     
 flops    96 x    32 x    57         168758231040       0.0%    100.0%      0.0%     
 flops    64 x    32 x    50         169181184000       0.0%    100.0%      0.0%     
 flops   104 x    32 x    57         182821416960       0.0%    100.0%      0.0%     
 flops   390 x    32 x    57         183345926400       0.0%    100.0%      0.0%     
 flops   421 x    32 x    57         197919576960       0.0%    100.0%      0.0%     
 flops    64 x    32 x    57         225010974720       0.0%    100.0%      0.0%     
 flops    96 x    32 x    32         234985881600       0.0%    100.0%      0.0%     
 flops   104 x    32 x    32         254568038400       0.0%    100.0%      0.0%     
 flops    64 x    32 x    32         313314508800       0.0%    100.0%      0.0%     
 flops   313 x    32 x    32         546985779200       0.0%    100.0%      0.0%     
 flops     5 x    32 x    13         571604633600       0.0%    100.0%      0.0%     
 flops    13 x    32 x     5         571604633600       0.0%    100.0%      0.0%     
 flops   336 x    32 x    32         587179622400       0.0%    100.0%      0.0%     
 flops    13 x    13 x    32         607634227200       0.0%    100.0%      0.0%     
 flops    14 x    32 x    13         654747125760       0.0%    100.0%      0.0%     
 flops    13 x    32 x    14         654747125760       0.0%    100.0%      0.0%     
 flops   390 x    32 x    32         681547776000       0.0%    100.0%      0.0%     
 flops   421 x    32 x    32         735722086400       0.0%    100.0%      0.0%     
 flops    13 x    32 x    13        2567024445440       0.0%    100.0%      0.0%     
 flops inhomo. stacks               2202668039520     100.0%      0.0%      0.0%
 flops total                        15.901304E+12      13.9%     86.1%      0.0%
 flops max/rank                    747.161915E+09      14.9%     85.1%      0.0%
 matmuls inhomo. stacks                   3455100     100.0%      0.0%      0.0%
 matmuls total                         1083373544       0.3%     99.7%      0.0%
 number of processed stacks              71475404       4.8%     95.2%      0.0%
 average stack size                                     1.0      15.9       0.0
 marketing flops                    16.751354E+12
 -------------------------------------------------------------------------------
 # multiplications                          35431
 max memory usage/rank             534.904832E+06
 # max total images/rank                       13
 # max 3D layers                                1
 # MPI messages exchanged                70011656
 MPI messages size (bytes):
  total size                         4.534990E+12
  min size                           0.000000E+00
  max size                         381.680000E+03
  average size                      64.774785E+03
 MPI breakdown and total messages size (bytes):
             size <=      128            34252521                        0
       128 < size <=     8192             2863345              19017393152
      8192 < size <=    32768             4433640              61416960000
     32768 < size <=   131072            15452650             934860832000
    131072 < size <=  4194304            13009500            3522302560000
   4194304 < size <= 16777216                   0                        0
  16777216 < size                               0                        0
 -------------------------------------------------------------------------------

 *** WARNING in dbcsr_mm.F:301 :: Using a non-square number of MPI ranks ***
 *** might lead to poor performance. Used ranks: 52 Suggested: 49 100    ***

 -------------------------------------------------------------------------------
 -                                                                             -
 -                      DBCSR MESSAGE PASSING PERFORMANCE                      -
 -                                                                             -
 -------------------------------------------------------------------------------
 ROUTINE             CALLS      AVE VOLUME [Bytes]
 MP_Bcast              113                     12.
 MP_Allreduce       190020                      8.
 MP_Alltoall        118307                  22265.
 MP_ISend          3173468                  30133.
 MP_IRecv          3076122                  29818.
 -------------------------------------------------------------------------------

 -------------------------------------------------------------------------------
 -                                                                             -
 -                                DBM STATISTICS                               -
 -                                                                             -
 -------------------------------------------------------------------------------
    M  x    N  x    K                                          COUNT     PERCENT
 -------------------------------------------------------------------------------

 -------------------------------------------------------------------------------
 -                                                                             -
 -                                GRID STATISTICS                              -
 -                                                                             -
 -------------------------------------------------------------------------------
 LP    KERNEL             BACKEND                              COUNT     PERCENT
 3     collocate general  CPU                              191022808      22.37%
 4     collocate general  CPU                              183162256      21.45%
 3     integrate general  CPU                              182476258      21.37%
 4     integrate general  CPU                              174368966      20.42%
 2     collocate general  CPU                               52202424       6.11%
 2     integrate general  CPU                               49696235       5.82%
 6     integrate general  CPU                                9066672       1.06%
 7     integrate general  CPU                                8693372       1.02%
 5     integrate general  CPU                                2477707       0.29%
 0     collocate general  CPU                                 631488       0.07%
 -------------------------------------------------------------------------------

 MEMORY| Estimated peak process memory [MiB]                                 511

 -------------------------------------------------------------------------------
 -                                                                             -
 -                         MESSAGE PASSING PERFORMANCE                         -
 -                                                                             -
 -------------------------------------------------------------------------------

 ROUTINE             CALLS      AVE VOLUME [Bytes]
 MP_Group                4
 MP_Bcast            14161                  55035.
 MP_Allreduce        46021                    346.
 MP_Sync               318
 MP_Alltoall         43377                2790273.
 MP_SendRecv        298197                  65206.
 MP_ISendRecv       280296                  68832.
 MP_Wait            541416
 MP_comm_split         227
 MP_ISend           238080                 237201.
 MP_IRecv           238080                 237200.
 -------------------------------------------------------------------------------


 -------------------------------------------------------------------------------
 -                                                                             -
 -                           R E F E R E N C E S                               -
 -                                                                             -
 -------------------------------------------------------------------------------
 
 CP2K version 2024.3, the CP2K developers group (2024).
 CP2K is freely available from https://www.cp2k.org/ .
 
 T. D. Kuehne, M. Iannuzzi, M. Del Ben, V. V. Rybkin, P. Seewald, F. Stein, T. 
 Laino, R. Z. Khaliullin, O. Schuett, F. Schiffmann, D. Golze, J. Wilhelm, S. 
 Chulkov, M. H. Bani-Hashemian, V. Weber, U. Borstnik, M. Taillefumier, A. S. 
 Jakobovits, A. Lazzaro, H. Pabst, T. Mueller, R. Schade, M. Guidon, S. 
 Andermatt, N. Holmberg, G. K. Schenter, A. Hehn, A. Bussy, F. Belleflamme, G. 
 Tabacchi, A. Gloess, M. Lass, I. Bethune, C. J. Mundy, C. Plessl, M. Watkins, 
 J. VandeVondele, M. Krack, J. Hutter.
 J. Chem. Phys. 152, 194103 (2020).
 CP2K: An electronic structure and molecular dynamics software package - 
 Quickstep: Efficient and accurate electronic structure calculations.
 https://doi.org/10.1063/5.0007045

 L. Goerigk, A. Hansen, C. Bauer, S. Ehrlich, A. Najibi, S. Grimme.
 Phys. Chem. Chem. Phys. 19, 32184-32215 (2017).
 A look at the density functional theory zoo with the advanced GMTKN55 database 
 for general main group thermochemistry, kinetics and noncovalent interactions.
 https://doi.org/10.1039/C7CP04913G

 O. Schuett, P. Messmer, J. Hutter, J. VandeVondele.
 Electronic Structure Calculations on Graphics Processing Units, 173-190 (2016).
 GPU-Accelerated Sparse Matrix-Matrix Multiplication for Linear Scaling Density 
 Functional Theory.
 https://doi.org/10.1002/9781118670712.ch8

 A. Heinecke, G. Henry, M. Hutchinson, H. Pabst.
 Proceedings of Intl. Supercomputing Conference, 981-991 (2016).
 LIBXSMM: Accelerating Small Matrix Multiplications by Runtime Code Generation.
 https://doi.org/10.1109/SC.2016.83

 J. Hutter, M. Iannuzzi, F. Schiffmann, J. VandeVondele.
 WIREs Comput Mol Sci. 4, 15-25 (2014).
 CP2K: atomistic simulations of condensed matter systems.
 https://doi.org/10.1002/wcms.1159

 U. Borstnik, J. VandeVondele, V. Weber, J. Hutter.
 Parallel Comput. 40, 47-58 (2014).
 Sparse matrix multiplication: The distributed block-compressed sparse row 
 library.
 https://doi.org/10.1016/j.parco.2014.03.012

 A. Marek, V. Blum, R. Johanni, V. Havu, B. Lang, T. Auckenthaler, A. Heinecke, 
 H. Bungartz, H. Lederer.
 J. Phys. Condens. Matter 26, 213201 (2014).
 The ELPA library: scalable parallel eigenvalue solutions for electronic 
 structure theory and computational science.
 https://doi.org/10.1088/0953-8984/26/21/213201

 S. Grimme, S. Ehrlich, L. Goerigk.
 J. Comput. Chem. 32, 1456 (2011).
 Effect of the damping function in dispersion corrected density functional 
 theory.
 https://doi.org/10.1002/jcc.21759

 S. Grimme, J. Antony, S. Ehrlich, H. Krieg.
 J. Chem. Phys. 132, 154104 (2010).
 A consistent and accurate ab initio parametrization of density functional 
 dispersion correction (DFT-D) for the 94 elements H-Pu.
 https://doi.org/10.1063/1.3382344

 J. P. Perdew, A. Ruzsinszky, G. I. Csonka, O. A. Vydrov, G. E. Scuseria, L. A. 
 Constantin, X. Zhou, K. Burke.
 Phys. Rev. Lett. 100, 136406-136409 (2008).
 Restoring the Density-Gradient Expansion for Exchange in Solids and Surfaces.
 https://doi.org/10.1103/PhysRevLett.100.136406

 J. VandeVondele, J. Hutter.
 J. Chem. Phys. 127, 114105 (2007).
 Gaussian basis sets for accurate calculations on molecular systems in gas and 
 condensed phases.
 https://doi.org/10.1063/1.2770708

 T. D. Kühne, M. Krack, F. R. Mohamed, M. Parrinello.
 Phys. Rev. Lett. 98, 066401 (2007).
 Efficient and accurate Car-Parrinello-like approach to Born-Oppenheimer 
 molecular dynamics.
 https://doi.org/10.1103/PhysRevLett.98.066401

 J. VandeVondele, M. Krack, F. Mohamed, M. Parrinello, T. Chassaing, J. Hutter.
 Comput. Phys. Commun. 167, 103-128 (2005).
 QUICKSTEP: Fast and accurate density functional calculations using a mixed 
 Gaussian and plane waves approach.
 https://doi.org/10.1016/j.cpc.2004.12.014

 M. Krack.
 Theor. Chem. Acc. 114, 145-152 (2005).
 Pseudopotentials for H to Kr optimized for gradient-corrected 
 exchange-correlation functionals.
 https://doi.org/10.1007/s00214-005-0655-y

 M. Frigo, S. G. Johnson.
 Proc. IEEE 93, 216-231 (2005).
 The design and implementation of FFTW3.
 https://doi.org/10.1109/JPROC.2004.840301

 J. Kolafa.
 J. Comput. Chem. 25, 335-342 (2004).
 Time-reversible always stable predictor-corrector method for molecular dynamics 
 of polarizable molecules.
 https://doi.org/10.1002/jcc.10385

 J. VandeVondele, J. Hutter.
 J. Chem. Phys. 118, 4365-4369 (2003).
 An efficient orbital transformation method for electronic structure 
 calculations.
 https://doi.org/10.1063/1.1543154

 C. Hartwigsen, S. Goedecker, J. Hutter.
 Phys. Rev. B 58, 3641-3662 (1998).
 Relativistic separable dual-space Gaussian pseudopotentials from H to Rn.
 https://doi.org/10.1103/PhysRevB.58.3641

 G. Lippert, J. Hutter, M. Parrinello.
 Mol. Phys. 92, 477-487 (1997).
 A hybrid Gaussian and plane wave density functional scheme.
 https://doi.org/10.1080/002689797170220

 S. Goedecker, M. Teter, J. Hutter.
 Phys. Rev. B 54, 1703-1710 (1996).
 Separable dual-space Gaussian pseudopotentials.
 https://doi.org/10.1103/PhysRevB.54.1703

 J. P. Perdew, K. Burke, M. Ernzerhof.
 Phys. Rev. Lett. 77, 3865-3868 (1996).
 Generalized gradient approximation made simple.
 https://doi.org/10.1103/PhysRevLett.77.3865


 -------------------------------------------------------------------------------
 -                                                                             -
 -                                T I M I N G                                  -
 -                                                                             -
 -------------------------------------------------------------------------------
 SUBROUTINE                       CALLS  ASD         SELF TIME        TOTAL TIME
                                MAXIMUM       AVERAGE  MAXIMUM  AVERAGE  MAXIMUM
 CP2K                                 1  1.0    0.012    0.015 3392.394 3392.400
 cp_geo_opt                           1  2.0    0.000    0.000 3392.055 3392.061
 geoopt_bfgs                          1  3.0    0.025    0.034 3392.055 3392.061
 cp_eval_at                          88  4.0    0.016    0.056 3388.752 3388.787
 qs_forces                           87  5.0    0.021    0.028 3370.895 3370.903
 qs_energies                         88  6.0    0.008    0.010 3157.742 3157.782
 scf_env_do_scf                      88  7.0    0.006    0.011 3046.039 3046.050
 scf_env_do_scf_inner_loop         1745  8.0    0.044    0.213 2949.764 2950.175
 rebuild_ks_matrix                 1832  9.9    0.008    0.009 1789.511 1790.920
 qs_ks_build_kohn_sham_matrix      1832 10.9    0.340    0.373 1789.503 1790.913
 qs_ks_update_qs_env               1841  9.0    0.015    0.023 1620.623 1621.615
 sum_up_and_integrate              1832 11.9    0.048    0.080 1348.804 1349.799
 integrate_v_rspace                1832 12.9    0.086    0.117 1347.400 1348.837
 qs_rho_update_rho_low             1833  9.0    0.010    0.012 1334.261 1335.288
 calculate_rho_elec                1833 10.0    0.948    1.087 1334.252 1335.279
 grid_collocate_task_list          1833 11.0 1086.823 1135.585 1086.823 1135.585
 grid_integrate_task_list          1832 13.9 1066.248 1098.060 1066.248 1098.060
 fft_wrap_pw1pw2                  31237 14.2    1.336    1.612  384.414  403.943
 fft_wrap_pw1pw2_250              20242 15.6   19.499   20.209  360.684  378.379
 qs_vxc_create                     1832 11.9    0.095    0.122  323.675  330.136
 xc_vxc_pw_create                  1832 12.9    8.403   10.072  323.580  330.063
 fft3d_ps                         31237 16.2  151.008  167.015  295.440  318.830
 density_rs2pw                     1833 11.0    0.183    0.237  242.046  291.981
 xc_pw_derive                     10992 14.9    0.301    0.373  234.414  257.514
 transfer_rs2pw                    7420 12.0    0.139    0.234  166.490  216.214
 potential_pw2rs                   1832 13.9    0.232    0.268  211.596  212.308
 mp_waitany                      238080 15.3  147.261  198.067  147.261  198.067
 transfer_rs2pw_250                1921 12.9   28.173   35.630  142.134  192.201
 dbcsr_multiply_generic           35431 14.0    1.930    2.225  171.818  176.900
 transfer_pw2rs                    7415 14.8    0.133    0.163  173.763  174.048
 xc_pw_divergence                  1832 13.9    0.151    0.185  157.175  172.198
 qs_ks_update_qs_env_forces          87  6.0    0.000    0.001  169.990  170.833
 mp_alltoall_z22v                 31237 18.2   99.755  169.209   99.755  169.209
 xc_rho_set_and_dset_create        1832 13.9    4.079    4.976  152.189  155.511
 qs_scf_new_mos                    1745  9.0    0.010    0.016  147.220  148.417
 qs_scf_loop_do_ot                 1745 10.0    0.012    0.015  147.210  148.408
 transfer_pw2rs_250                1919 15.6   70.270   72.821  139.289  142.774
 ot_scf_mini                       1745 11.0    0.053    0.058  137.510  138.641
 mp_alltoall_d11v                 25235 15.2   71.032  119.667   71.032  119.667
 rs_gather_matrices                1832 13.9    0.395    0.750   69.340  118.256
 yz_to_x                          11082 17.4   15.838   19.972   69.083  109.211
 init_scf_loop                       96  8.0    0.003    0.003   95.657   95.666
 multiply_cannon                  35431 15.0    4.051    4.347   86.399   92.391
 ot_mini                           1745 12.0    0.012    0.013   90.500   91.787
 x_to_yz                          12825 17.5   22.826   26.847   67.983   82.173
 mp_waitall_1                   4838504 18.0   52.747   76.551   52.747   76.551
 multiply_cannon_loop             35431 16.0    5.072    6.592   70.584   75.690
 init_scf_run                        88  7.0    0.002    0.005   72.979   73.063
 scf_env_initial_rho_setup           88  8.0    0.001    0.002   72.976   73.061
 qs_ot_get_derivative              1745 13.0    0.016    0.020   71.587   72.875
 wfi_extrapolate                     88  9.0    0.009    0.010   72.013   72.013
 -------------------------------------------------------------------------------

 The number of warnings for this run is : 1
 
 -------------------------------------------------------------------------------
  **** **** ******  **  PROGRAM ENDED AT                 2025-01-16 07:09:37.263
 ***** ** ***  *** **   PROGRAM RAN ON                               ubuntu-GPU2
 **    ****   ******    PROGRAM RAN BY                                       zkm
 ***** **    ** ** **   PROGRAM PROCESS ID                               3480267
  **** **  *******  **  PROGRAM STOPPED IN /home/zkm/CP2K/Generate_dataset/Jenni
                                           te/Elastic/elastic_cp2k/example/epsil
                                           onzz/pos
