 DBCSR| CPU Multiplication driver                                           XSMM (U)
 DBCSR| Multrec recursion limit                                              512 (U)
 DBCSR| Multiplication stack size                                           1000 (D)
 DBCSR| Maximum elements for images                                    UNLIMITED (U)
 DBCSR| Multiplicative factor virtual images                                   1 (U)
 DBCSR| Use multiplication densification                                       T (D)
 DBCSR| Multiplication size stacks                                             3 (U)
 DBCSR| Use memory pool for CPU allocation                                     F (U)
 DBCSR| Number of 3D layers                                               SINGLE (U)
 DBCSR| Use MPI memory allocation                                              F (U)
 DBCSR| Use RMA algorithm                                                      F (U)
 DBCSR| Use Communication thread                                               T (U)
 DBCSR| Communication thread load                                             83 (D)
 DBCSR| MPI: My process id                                                     0
 DBCSR| MPI: Number of processes                                              52
 DBCSR| OMP: Current number of threads                                         2
 DBCSR| OMP: Max number of threads                                             2
 DBCSR| Split modifier for TAS multiplication algorithm                  1.0E+00 (U)


  **** **** ******  **  PROGRAM STARTED AT               2025-01-16 08:50:54.004
 ***** ** ***  *** **   PROGRAM STARTED ON                           ubuntu-GPU2
 **    ****   ******    PROGRAM STARTED BY                                   zkm
 ***** **    ** ** **   PROGRAM PROCESS ID                               3482319
  **** **  *******  **  PROGRAM STARTED IN /home/zkm/CP2K/Generate_dataset/Jenni
                                           te/Elastic/elastic_cp2k/example/epsil
                                           onxy/pos

 CP2K| version string:                                       CP2K version 2024.3
 CP2K| source code revision number:                                  git:6712648
 CP2K| cp2kflags: omp libint fftw3 libxc libgrpp pexsi elpa parallel scalapack m
 CP2K|            pi_f08 cosma quip xsmm plumed2 spglib mkl sirius libvori libbq
 CP2K|            qb libvdwxc hdf5
 CP2K| is freely available from                            https://www.cp2k.org/
 CP2K| Program compiled at            2024年 10月 05日 星期六 13:00:57 CST
 CP2K| Program compiled on                                           ubuntu-GPU2
 CP2K| Program compiled for                                                local
 CP2K| Data directory path                       /home/zkm/CP2K/cp2k-2024.3/data
 CP2K| Input file name                                                geoopt.inp

 GLOBAL| Force Environment number                                              1
 GLOBAL| Basis set file name                                        BASIS_MOLOPT
 GLOBAL| Potential file name                                           POTENTIAL
 GLOBAL| MM Potential file name                                     MM_POTENTIAL
 GLOBAL| Coordinate file name                                          coord.xyz
 GLOBAL| Method name                                                        CP2K
 GLOBAL| Project name                                                     geoopt
 GLOBAL| Run type                                                        GEO_OPT
 GLOBAL| FFT library                                                       FFTW3
 GLOBAL| Diagonalization library                                            ELPA
 GLOBAL| DGEMM library                                                      BLAS
 GLOBAL| Minimum number of eigenvectors for ELPA usage                        16
 GLOBAL| Orthonormality check for eigenvectors                          DISABLED
 GLOBAL| Matrix multiplication library                                     COSMA
 GLOBAL| All-to-all communication in single precision                          F
 GLOBAL| FFTs using library dependent lengths                                  F
 GLOBAL| Grid backend                                                       AUTO
 GLOBAL| Global print level                                                  LOW
 GLOBAL| MPI I/O enabled                                                       T
 GLOBAL| Total number of message passing processes                            52
 GLOBAL| Number of threads for this process                                    2
 GLOBAL| This output is from process                                           0
 GLOBAL| Stack size for threads created by OpenMP (OMP_STACKSIZE)        default
 GLOBAL| CPU model name            Intel(R) Xeon(R) Platinum 8179M CPU @ 2.40GHz
 GLOBAL| CPUID                                                              1003

 MEMORY| system memory details [Kb]
 MEMORY|                        rank 0           min           max       average
 MEMORY| MemTotal            527974664     527974664     527974664     527974664
 MEMORY| MemFree             104446908     104446908     104446908     104446908
 MEMORY| Buffers               6978732       6978732       6978732       6978732
 MEMORY| Cached              241777396     241777396     241777396     241777396
 MEMORY| Slab                 39989408      39989408      39989408      39989408
 MEMORY| SReclaimable         37159928      37159928      37159928      37159928
 MEMORY| MemLikelyFree       390362964     390362964     390362964     390362964


 GENERATE|  Preliminary Number of Bonds generated:                             0
 GENERATE|  Achieved consistency in connectivity generation.

 *******************************************************************************
 *******************************************************************************
 **                                                                           **
 **     #####                         ##              ##                      **
 **    ##   ##            ##          ##              ##                      **
 **   ##     ##                       ##            ######                    **
 **   ##     ##  ##   ##  ##   #####  ##  ##   ####   ##    #####    #####    **
 **   ##     ##  ##   ##  ##  ##      ## ##   ##      ##   ##   ##  ##   ##   **
 **   ##  ## ##  ##   ##  ##  ##      ####     ###    ##   ######   ######    **
 **    ##  ###   ##   ##  ##  ##      ## ##      ##   ##   ##       ##        **
 **     #######   #####   ##   #####  ##  ##  ####    ##    #####   ##        **
 **           ##                                                    ##        **
 **                                                                           **
 **                                                ... make the atoms dance   **
 **                                                                           **
 **            Copyright (C) by CP2K developers group (2000-2024)             **
 **                      J. Chem. Phys. 152, 194103 (2020)                    **
 **                                                                           **
 *******************************************************************************


 TOTAL NUMBERS AND MAXIMUM NUMBERS

  Total number of            - Atomic kinds:                                   4
                             - Atoms:                                        138
                             - Shell sets:                                   138
                             - Shells:                                       620
                             - Primitive Cartesian functions:                696
                             - Cartesian basis functions:                   1554
                             - Spherical basis functions:                   1460

  Maximum angular momentum of- Orbital basis functions:                        2
                             - Local part of the GTH pseudopotential:          2
                             - Non-local part of the GTH pseudopotential:      3


 SCF PARAMETERS         Density guess:                                    ATOMIC
                        --------------------------------------------------------
                        max_scf:                                              25
                        max_scf_history:                                       0
                        max_diis:                                              4
                        --------------------------------------------------------
                        eps_scf:                                        1.00E-07
                        eps_scf_history:                                0.00E+00
                        eps_diis:                                       1.00E-01
                        eps_eigval:                                     1.00E-05
                        --------------------------------------------------------
                        level_shift [a.u.]:                             0.000000
                        --------------------------------------------------------
                        Outer loop SCF in use 
                        No variables optimised in outer loop
                        eps_scf                                         1.00E-07
                        max_scf                                               20
                        No outer loop optimization
                        step_size                                       5.00E-01

 BFGS| Use rational function optimization for step estimation:                NO
 BFGS| Use model Hessian for initial guess:                                  YES
 BFGS| Restart Hessian:                                                       NO
 BFGS| Trust radius:                                                       0.378

 *******************************************************************************
 ***                     STARTING GEOMETRY OPTIMIZATION                      ***
 ***                                   BFGS                                  ***
 *******************************************************************************

 Number of electrons:                                                        656
 Number of occupied orbitals:                                                328
 Number of molecular orbitals:                                               328

 Number of orbital functions:                                               1460
 Number of independent orbital functions:                                   1460

 Extrapolation method: initial_guess


 SCF WAVEFUNCTION OPTIMIZATION

  ----------------------------------- OT ---------------------------------------
  Minimizer      : DIIS                : direct inversion
                                         in the iterative subspace
                                         using   7 DIIS vectors
                                         safer DIIS on
  Preconditioner : FULL_KINETIC        : inversion of T + eS
  Precond_solver : DEFAULT
  stepsize       :    0.15000000                  energy_gap     :    0.20000000
  eps_taylor     :   0.10000E-15                  max_taylor     :             4
  ----------------------------------- OT ---------------------------------------

  Step     Update method      Time    Convergence         Total energy    Change
  ------------------------------------------------------------------------------
     1 OT DIIS     0.15E+00    1.1     0.01898781     -1710.3454154663 -1.71E+03
     2 OT DIIS     0.15E+00    1.7     0.01127679     -1728.8307166809 -1.85E+01
     3 OT DIIS     0.15E+00    1.7     0.00837732     -1737.9421219565 -9.11E+00
     4 OT DIIS     0.15E+00    1.7     0.00558907     -1746.5677937023 -8.63E+00
     5 OT DIIS     0.15E+00    1.7     0.00415360     -1751.0337379145 -4.47E+00
     6 OT DIIS     0.15E+00    1.7     0.00321267     -1753.9147808040 -2.88E+00
     7 OT DIIS     0.15E+00    1.7     0.00246749     -1756.0760434702 -2.16E+00
     8 OT DIIS     0.15E+00    1.7     0.00194711     -1757.5029810865 -1.43E+00
     9 OT DIIS     0.15E+00    1.7     0.00156086     -1758.4553259463 -9.52E-01
    10 OT DIIS     0.15E+00    1.7     0.00132649     -1759.0757479800 -6.20E-01
    11 OT DIIS     0.15E+00    1.7     0.00113047     -1759.5041469446 -4.28E-01
    12 OT DIIS     0.15E+00    1.7     0.00101376     -1759.8520073134 -3.48E-01
    13 OT DIIS     0.15E+00    2.5     0.00088892     -1760.0984942959 -2.46E-01
    14 OT DIIS     0.15E+00    1.7     0.00080188     -1760.3273386322 -2.29E-01
    15 OT DIIS     0.15E+00    1.7     0.00072822     -1760.4994570264 -1.72E-01
    16 OT DIIS     0.15E+00    1.7     0.00065218     -1760.6707526499 -1.71E-01
    17 OT DIIS     0.15E+00    1.7     0.00057469     -1760.8208623515 -1.50E-01
    18 OT DIIS     0.15E+00    1.7     0.00048947     -1760.9383050535 -1.17E-01
    19 OT DIIS     0.15E+00    1.7     0.00042795     -1761.0138278360 -7.55E-02
    20 OT DIIS     0.15E+00    1.7     0.00033556     -1761.1013678930 -8.75E-02
    21 OT DIIS     0.15E+00    1.7     0.00029166     -1761.1177881534 -1.64E-02
    22 OT DIIS     0.15E+00    1.7     0.00022444     -1761.1562464408 -3.85E-02
    23 OT DIIS     0.15E+00    1.7     0.00017971     -1761.1756482883 -1.94E-02
    24 OT DIIS     0.15E+00    1.7     0.00015251     -1761.1862916746 -1.06E-02
    25 OT DIIS     0.15E+00    1.7     0.00012214     -1761.1948881700 -8.60E-03

  Leaving inner SCF loop after reaching    25 steps.


  Electronic density on regular grids:       -655.9999999993        0.0000000007
  Core density on regular grids:              655.9999999997       -0.0000000003
  Total charge density on r-space grids:        0.0000000003
  Total charge density g-space grids:           0.0000000003

  Overlap energy of the core charge distribution:               0.00000064766061
  Self energy of the core charge distribution:              -4144.80997841715816
  Core Hamiltonian energy:                                   1117.33554717662355
  Hartree energy:                                            1613.68408531239902
  Exchange-correlation energy:                               -346.90938904160532
  Dispersion energy:                                           -0.49515384792791

  Total energy:                                             -1761.19488817000843

  outer SCF iter =    1 RMS gradient =   0.12E-03 energy =      -1761.1948881700

  ----------------------------------- OT ---------------------------------------
  Minimizer      : DIIS                : direct inversion
                                         in the iterative subspace
                                         using   7 DIIS vectors
                                         safer DIIS on
  Preconditioner : FULL_KINETIC        : inversion of T + eS
  Precond_solver : DEFAULT
  stepsize       :    0.15000000                  energy_gap     :    0.20000000
  eps_taylor     :   0.10000E-15                  max_taylor     :             4
  ----------------------------------- OT ---------------------------------------

  Step     Update method      Time    Convergence         Total energy    Change
  ------------------------------------------------------------------------------
     1 OT DIIS     0.15E+00    3.5     0.00034709     -1761.1996691763 -4.78E-03
     2 OT DIIS     0.15E+00    1.7     0.00025835     -1761.2070352239 -7.37E-03
     3 OT DIIS     0.15E+00    1.7     0.00017791     -1761.2147666779 -7.73E-03
     4 OT DIIS     0.15E+00    1.7     0.00012977     -1761.2192466161 -4.48E-03
     5 OT DIIS     0.15E+00    1.8     0.00008571     -1761.2224103998 -3.16E-03
     6 OT DIIS     0.15E+00    1.7     0.00005565     -1761.2239743521 -1.56E-03
     7 OT DIIS     0.15E+00    1.7     0.00003926     -1761.2245475963 -5.73E-04
     8 OT DIIS     0.15E+00    2.2     0.00002483     -1761.2248852413 -3.38E-04
     9 OT DIIS     0.15E+00    1.7     0.00001689     -1761.2250108260 -1.26E-04
    10 OT DIIS     0.15E+00    1.7     0.00001220     -1761.2250630326 -5.22E-05
    11 OT DIIS     0.15E+00    1.7     0.00000838     -1761.2250938585 -3.08E-05
    12 OT DIIS     0.15E+00    1.7     0.00000595     -1761.2251076807 -1.38E-05
    13 OT DIIS     0.15E+00    1.7     0.00000430     -1761.2251141272 -6.45E-06
    14 OT DIIS     0.15E+00    2.6     0.00000311     -1761.2251172773 -3.15E-06
    15 OT DIIS     0.15E+00    1.7     0.00000237     -1761.2251187061 -1.43E-06
    16 OT DIIS     0.15E+00    1.7     0.00000178     -1761.2251195536 -8.48E-07
    17 OT DIIS     0.15E+00    1.7     0.00000138     -1761.2251200058 -4.52E-07
    18 OT DIIS     0.15E+00    1.7     0.00000107     -1761.2251202821 -2.76E-07
    19 OT DIIS     0.15E+00    1.7     0.00000081     -1761.2251204657 -1.84E-07
    20 OT DIIS     0.15E+00    1.7     0.00000061     -1761.2251205718 -1.06E-07
    21 OT DIIS     0.15E+00    1.7     0.00000047     -1761.2251206264 -5.46E-08
    22 OT DIIS     0.15E+00    1.7     0.00000036     -1761.2251206598 -3.34E-08
    23 OT DIIS     0.15E+00    1.7     0.00000028     -1761.2251206803 -2.05E-08
    24 OT DIIS     0.15E+00    1.7     0.00000022     -1761.2251206929 -1.26E-08
    25 OT DIIS     0.15E+00    1.7     0.00000017     -1761.2251207006 -7.68E-09

  Leaving inner SCF loop after reaching    25 steps.


  Electronic density on regular grids:       -655.9999999993        0.0000000007
  Core density on regular grids:              655.9999999997       -0.0000000003
  Total charge density on r-space grids:        0.0000000004
  Total charge density g-space grids:           0.0000000004

  Overlap energy of the core charge distribution:               0.00000064766061
  Self energy of the core charge distribution:              -4144.80997841715816
  Core Hamiltonian energy:                                   1117.28125180951429
  Hartree energy:                                            1613.70891822303429
  Exchange-correlation energy:                               -346.91015911571333
  Dispersion energy:                                           -0.49515384792791

  Total energy:                                             -1761.22512070059042

  outer SCF iter =    2 RMS gradient =   0.17E-06 energy =      -1761.2251207006

  ----------------------------------- OT ---------------------------------------
  Minimizer      : DIIS                : direct inversion
                                         in the iterative subspace
                                         using   7 DIIS vectors
                                         safer DIIS on
  Preconditioner : FULL_KINETIC        : inversion of T + eS
  Precond_solver : DEFAULT
  stepsize       :    0.15000000                  energy_gap     :    0.20000000
  eps_taylor     :   0.10000E-15                  max_taylor     :             4
  ----------------------------------- OT ---------------------------------------

  Step     Update method      Time    Convergence         Total energy    Change
  ------------------------------------------------------------------------------
     1 OT DIIS     0.15E+00    3.4     0.00000014     -1761.2251207053 -4.67E-09
     2 OT DIIS     0.15E+00    1.7     0.00000012     -1761.2251207065 -1.28E-09
     3 OT DIIS     0.15E+00    1.7     0.00000010     -1761.2251207085 -1.99E-09
     4 OT DIIS     0.15E+00    1.7     0.00000006     -1761.2251207120 -3.49E-09

  *** SCF run converged in     4 steps ***


  Electronic density on regular grids:       -655.9999999993        0.0000000007
  Core density on regular grids:              655.9999999997       -0.0000000003
  Total charge density on r-space grids:        0.0000000003
  Total charge density g-space grids:           0.0000000003

  Overlap energy of the core charge distribution:               0.00000064766061
  Self energy of the core charge distribution:              -4144.80997841715816
  Core Hamiltonian energy:                                   1117.28120717669958
  Hartree energy:                                            1613.70895691748842
  Exchange-correlation energy:                               -346.91015318877817
  Dispersion energy:                                           -0.49515384792791

  Total energy:                                             -1761.22512071201618

  outer SCF iter =    3 RMS gradient =   0.60E-07 energy =      -1761.2251207120
  outer SCF loop converged in   3 iterations or   54 steps


 ENERGY| Total FORCE_EVAL ( QS ) energy [a.u.]:            -1761.225120713050273

 ATOMIC FORCES in [a.u.]

 # Atom   Kind   Element          X              Y              Z
      1      1      Ca          0.00172485    -0.00154838    -0.00137702
      2      1      Ca         -0.00027421     0.00003231    -0.00026565
      3      1      Ca          0.00022062    -0.00006189    -0.00003651
      4      1      Ca         -0.00362159    -0.00047247     0.00044928
      5      2      Si         -0.00013347     0.00030744     0.00001267
      6      2      Si         -0.00442207     0.00348868     0.00736135
      7      2      Si         -0.00021786     0.00120617     0.00028761
      8      3      O          -0.05210877    -0.00680702    -0.01831984
      9      3      O          -0.00061610    -0.00073361     0.00014702
     10      3      O          -0.00253951    -0.00233382    -0.00257092
     11      3      O          -0.00039085     0.00002096    -0.00369825
     12      3      O          -0.02814007     0.03560380     0.01312237
     13      3      O          -0.00018149     0.00064374     0.00062634
     14      3      O           0.00168107    -0.00107928    -0.00121571
     15      3      O           0.00330145    -0.00137482     0.00077670
     16      3      O           0.00040071    -0.00111549    -0.00020865
     17      3      O           0.00067293     0.00023271     0.00049926
     18      3      O           0.00290657    -0.00001675     0.00002161
     19      3      O           0.00044305    -0.00037058    -0.00035720
     20      3      O           0.00178569     0.00103865     0.00231845
     21      3      O          -0.00219195     0.00717829     0.00067706
     22      3      O          -0.01193019    -0.00455712     0.01355673
     23      3      O          -0.00064289     0.00201311     0.00049356
     24      1      Ca          0.00064234    -0.00022375     0.00040934
     25      1      Ca         -0.00074454     0.00025192    -0.00146752
     26      1      Ca         -0.00434545     0.00158121     0.00075450
     27      1      Ca         -0.00027442     0.00032099     0.00048458
     28      2      Si         -0.07835351     0.02722207     0.00760093
     29      2      Si         -0.00014301    -0.00024434     0.00005569
     30      2      Si         -0.00130517     0.00033514    -0.00277783
     31      3      O          -0.00342961     0.00008001    -0.00002956
     32      3      O          -0.00816441    -0.00180201     0.00061868
     33      3      O          -0.00173750     0.00064346     0.00001309
     34      3      O          -0.00205143     0.00039948     0.00038002
     35      3      O           0.00382343     0.00038654     0.00009159
     36      3      O          -0.00212105    -0.00309473     0.00001524
     37      3      O           0.00204058    -0.00079445     0.00009602
     38      3      O          -0.00797848     0.00064779    -0.00185081
     39      3      O           0.00178202     0.00015841     0.00057060
     40      3      O          -0.00095322     0.00043887     0.00211936
     41      3      O          -0.00035042    -0.00015963    -0.00014757
     42      3      O           0.00097565     0.00115910     0.00011189
     43      3      O           0.00015514     0.00152240    -0.00270888
     44      3      O          -0.00250364    -0.00012347     0.00021174
     45      3      O          -0.00255693     0.00114335    -0.00040746
     46      3      O           0.00162438    -0.00006317     0.00025483
     47      1      Ca          0.00317186    -0.00199736    -0.00051390
     48      1      Ca         -0.00027427     0.00020729    -0.00044340
     49      1      Ca          0.00036260     0.00021962     0.00117348
     50      1      Ca          0.00531938    -0.00296552     0.00151192
     51      1      Ca          0.00018897    -0.00028659    -0.00044214
     52      2      Si          0.06956455    -0.02633256    -0.00299534
     53      2      Si          0.00015206    -0.00014657    -0.00000681
     54      2      Si          0.00178373    -0.00066291     0.00331183
     55      3      O          -0.00159316    -0.00001130     0.00026614
     56      3      O           0.00651344     0.00118694     0.00029511
     57      3      O          -0.00047535     0.00026564    -0.00012412
     58      3      O           0.00073675    -0.00004208    -0.00027421
     59      3      O          -0.00029752    -0.00010407    -0.00014610
     60      3      O           0.00231415     0.00481916    -0.00038192
     61      3      O           0.00042831     0.00087740    -0.00048227
     62      3      O           0.00596445    -0.00284423     0.00180152
     63      3      O          -0.00015536    -0.00060173    -0.00004508
     64      3      O           0.00234416     0.00023464    -0.00164617
     65      3      O           0.00274639    -0.00020502     0.00004016
     66      3      O           0.00217318    -0.00204677    -0.00072742
     67      3      O           0.00320915     0.00031221     0.00170867
     68      3      O          -0.00190869     0.00047248     0.00038036
     69      3      O          -0.00155477    -0.00069842     0.00015663
     70      3      O          -0.00239538     0.00106943    -0.00001887
     71      1      Ca         -0.00094075     0.00169736     0.00132154
     72      1      Ca          0.00027672    -0.00031627     0.00016376
     73      1      Ca         -0.00013000     0.00018967     0.00009943
     74      1      Ca          0.00326652    -0.00024977    -0.00147101
     75      2      Si          0.00016588    -0.00041314     0.00017597
     76      2      Si          0.00336097    -0.00331344    -0.00743090
     77      2      Si         -0.00006034    -0.00132144    -0.00031369
     78      3      O           0.04773009     0.00960444     0.01641305
     79      3      O          -0.00057748     0.00088155    -0.00026503
     80      3      O           0.00026268     0.00271120     0.00338101
     81      3      O           0.00129559     0.00020153     0.00374739
     82      3      O           0.04209990    -0.03926101    -0.01874102
     83      3      O          -0.00085769     0.00035461    -0.00030139
     84      3      O           0.00105978     0.00176157     0.00092060
     85      3      O          -0.00491395     0.00081144    -0.00130668
     86      3      O           0.00005357     0.00073810     0.00037771
     87      3      O           0.00003263     0.00036076     0.00038855
     88      3      O           0.00001453    -0.00013390    -0.00005250
     89      3      O           0.00106399    -0.00000697    -0.00024892
     90      3      O           0.00546867     0.00283171    -0.00349730
     91      3      O          -0.00233453    -0.00268191     0.00025305
     92      3      O           0.00381242     0.00349889    -0.01096148
     93      3      O           0.00246127    -0.00082737    -0.00022460
     94      1      Ca          0.00229564     0.00067091     0.00103505
     95      4      H          -0.00265566     0.00060525    -0.00152964
     96      4      H           0.00076648    -0.00067610    -0.00009725
     97      4      H          -0.00106707     0.00049863     0.00012520
     98      4      H          -0.00300414    -0.00229441     0.00086346
     99      4      H          -0.00235688     0.00693357    -0.00401751
    100      4      H           0.00243941    -0.00124415    -0.00702642
    101      4      H          -0.00071400    -0.00023649    -0.00029911
    102      4      H          -0.00019114     0.00021034    -0.00041929
    103      4      H           0.00017796    -0.00058845     0.00118937
    104      4      H          -0.00035979    -0.00023810    -0.00001124
    105      4      H          -0.00006198    -0.00001245    -0.00000553
    106      4      H           0.00000009     0.00017229    -0.00002185
    107      4      H           0.00011889    -0.00009704    -0.00019538
    108      4      H           0.00035733    -0.00061863    -0.00012660
    109      4      H           0.00005008    -0.00019157    -0.00017308
    110      4      H           0.00044513     0.00022266     0.00008357
    111      4      H          -0.00055444    -0.00000752    -0.00085269
    112      4      H           0.00024590    -0.00035086     0.00041254
    113      4      H          -0.00060769    -0.00060309     0.00007499
    114      4      H           0.00003317    -0.00040831     0.00015333
    115      4      H          -0.00035977     0.00070922    -0.00023836
    116      4      H           0.00009053     0.00011517    -0.00004205
    117      4      H          -0.00100215    -0.00023451     0.00009704
    118      4      H          -0.00018702     0.00011666    -0.00039453
    119      4      H           0.00304460    -0.00162054     0.00336871
    120      4      H           0.00290510    -0.00310170    -0.00159747
    121      4      H           0.00030719    -0.00065228     0.00023387
    122      4      H           0.00214244     0.00213235    -0.00016554
    123      4      H          -0.00252283     0.00137466     0.00685679
    124      4      H           0.00202650    -0.00448819     0.00170425
    125      4      H          -0.00019470     0.00004621    -0.00002616
    126      4      H           0.00025168     0.00094481     0.00043331
    127      4      H           0.00002370    -0.00006716     0.00003406
    128      4      H          -0.00006752     0.00000909    -0.00004944
    129      4      H           0.00003046    -0.00002966    -0.00004006
    130      4      H           0.00053303    -0.00046566    -0.00013492
    131      4      H           0.00014229     0.00001824     0.00002836
    132      4      H          -0.00040458    -0.00020888     0.00036617
    133      4      H          -0.00076252     0.00053155     0.00003856
    134      4      H          -0.00007398    -0.00004818    -0.00013483
    135      4      H          -0.00032391     0.00031165     0.00011672
    136      4      H          -0.00000731     0.00008862    -0.00007061
    137      4      H          -0.00000935    -0.00012658    -0.00000043
    138      4      H          -0.00042431    -0.00062304     0.00040699
 SUM OF ATOMIC FORCES           0.00120068     0.00539543     0.00147668     0.00572127

 STRESS| Analytical stress tensor [GPa]
 STRESS|                        x                   y                   z
 STRESS|      x       -2.17898780929E-01  -1.04376551561E+00  -5.90865103990E-01
 STRESS|      y       -1.04376551561E+00   3.63223251950E-01   1.26630739168E-01
 STRESS|      z       -5.90865103990E-01   1.26630739168E-01   9.01499581604E-02
 STRESS| 1/3 Trace                                             7.84914763938E-02
 STRESS| Determinant                                          -7.24709534305E-02

 STRESS| Eigenvectors and eigenvalues of the analytical stress tensor [GPa]
 STRESS|                        1                   2                   3
 STRESS| Eigenvalues  -1.14627749948E+00   4.73802549391E-02   1.33437167372E+00
 STRESS|      x           0.790505122606     -0.040556504815     -0.611111136416
 STRESS|      y           0.519377607338     -0.484401306475      0.703990252263
 STRESS|      z           0.324574416937      0.873905340528      0.361857573732

 OPT| **************************************************************************
 OPT| Step number                                                              0
 OPT| Optimization method                                                   BFGS
 OPT| Total energy [hartree]                                    -1761.2251207131
 OPT| Used time [s]                                                       98.350
 OPT| **************************************************************************
 OPT| Estimated peak process memory [MiB]                                    448

 --------------------------
 OPTIMIZATION STEP:      1
 --------------------------

 Number of electrons:                                                        656
 Number of occupied orbitals:                                                328
 Number of molecular orbitals:                                               328

 Number of orbital functions:                                               1460
 Number of independent orbital functions:                                   1460

 Extrapolation method: ASPC


 SCF WAVEFUNCTION OPTIMIZATION

  ----------------------------------- OT ---------------------------------------
  Minimizer      : DIIS                : direct inversion
                                         in the iterative subspace
                                         using   7 DIIS vectors
                                         safer DIIS on
  Preconditioner : FULL_KINETIC        : inversion of T + eS
  Precond_solver : DEFAULT
  stepsize       :    0.15000000                  energy_gap     :    0.20000000
  eps_taylor     :   0.10000E-15                  max_taylor     :             4
  ----------------------------------- OT ---------------------------------------

  Step     Update method      Time    Convergence         Total energy    Change
  ------------------------------------------------------------------------------
     1 OT DIIS     0.15E+00    1.0     0.00020557     -1761.2364628673 -1.76E+03
     2 OT DIIS     0.15E+00    1.7     0.00013200     -1761.2389055331 -2.44E-03
     3 OT DIIS     0.15E+00    1.7     0.00007056     -1761.2407219137 -1.82E-03
     4 OT DIIS     0.15E+00    1.7     0.00003994     -1761.2414914796 -7.70E-04
     5 OT DIIS     0.15E+00    1.7     0.00002475     -1761.2417822182 -2.91E-04
     6 OT DIIS     0.15E+00    1.7     0.00001701     -1761.2418897095 -1.07E-04
     7 OT DIIS     0.15E+00    1.7     0.00001048     -1761.2419491442 -5.94E-05
     8 OT DIIS     0.15E+00    1.7     0.00000668     -1761.2419702186 -2.11E-05
     9 OT DIIS     0.15E+00    2.7     0.00000468     -1761.2419773643 -7.15E-06
    10 OT DIIS     0.15E+00    1.7     0.00000313     -1761.2419811765 -3.81E-06
    11 OT DIIS     0.15E+00    1.7     0.00000204     -1761.2419830872 -1.91E-06
    12 OT DIIS     0.15E+00    1.7     0.00000143     -1761.2419838524 -7.65E-07
    13 OT DIIS     0.15E+00    1.7     0.00000096     -1761.2419842465 -3.94E-07
    14 OT DIIS     0.15E+00    1.7     0.00000062     -1761.2419844371 -1.91E-07
    15 OT DIIS     0.15E+00    1.7     0.00000044     -1761.2419845028 -6.58E-08
    16 OT DIIS     0.15E+00    1.7     0.00000030     -1761.2419845382 -3.53E-08
    17 OT DIIS     0.15E+00    1.7     0.00000021     -1761.2419845525 -1.43E-08
    18 OT DIIS     0.15E+00    1.7     0.00000016     -1761.2419845592 -6.69E-09
    19 OT DIIS     0.15E+00    1.7     0.00000011     -1761.2419845633 -4.14E-09
    20 OT DIIS     0.15E+00    1.7     0.00000008     -1761.2419845652 -1.88E-09

  *** SCF run converged in    20 steps ***


  Electronic density on regular grids:       -655.9999999993        0.0000000007
  Core density on regular grids:              655.9999999997       -0.0000000003
  Total charge density on r-space grids:        0.0000000003
  Total charge density g-space grids:           0.0000000003

  Overlap energy of the core charge distribution:               0.00000061593749
  Self energy of the core charge distribution:              -4144.80997841715816
  Core Hamiltonian energy:                                   1117.28663313998777
  Hartree energy:                                            1613.69320009734452
  Exchange-correlation energy:                               -346.91670710280255
  Dispersion energy:                                           -0.49513289848632

  Total energy:                                             -1761.24198456517775

  outer SCF iter =    1 RMS gradient =   0.83E-07 energy =      -1761.2419845652
  outer SCF loop converged in   1 iterations or   20 steps


 ENERGY| Total FORCE_EVAL ( QS ) energy [a.u.]:            -1761.241984566202973

 ATOMIC FORCES in [a.u.]

 # Atom   Kind   Element          X              Y              Z
      1      1      Ca         -0.00182228    -0.00037757    -0.00056366
      2      1      Ca          0.00048804     0.00011165     0.00018010
      3      1      Ca         -0.00032026    -0.00033986    -0.00001102
      4      1      Ca          0.00015237     0.00031652    -0.00047776
      5      2      Si          0.00010330    -0.00004092     0.00008901
      6      2      Si          0.00005802     0.00065651    -0.00202160
      7      2      Si         -0.00028707    -0.00039466     0.00012236
      8      3      O          -0.03142186    -0.00563596    -0.01252624
      9      3      O          -0.00027859    -0.00030905    -0.00031647
     10      3      O          -0.00114071     0.00131037     0.00168649
     11      3      O          -0.00283456    -0.00176333     0.00246972
     12      3      O          -0.01511906     0.01887215     0.00304758
     13      3      O          -0.00061960     0.00079945     0.00039475
     14      3      O           0.00012018    -0.00045926     0.00119637
     15      3      O           0.00217336    -0.00037264     0.00079308
     16      3      O          -0.00016883     0.00038446     0.00069441
     17      3      O           0.00039006     0.00049395     0.00043672
     18      3      O          -0.00009073     0.00015440     0.00008188
     19      3      O           0.00158892    -0.00050046    -0.00008982
     20      3      O          -0.00029612    -0.00078880     0.00007554
     21      3      O          -0.00102311     0.00055636     0.00060987
     22      3      O          -0.00260464     0.00040770    -0.00174367
     23      3      O           0.00023414     0.00013985    -0.00039210
     24      1      Ca         -0.00077429     0.00046765    -0.00025453
     25      1      Ca         -0.00141959    -0.00058904     0.00068291
     26      1      Ca         -0.00171090     0.00147912    -0.00023021
     27      1      Ca          0.00006086     0.00044931    -0.00005911
     28      2      Si         -0.05205165     0.01488597    -0.00200416
     29      2      Si          0.00034103     0.00144992    -0.00039415
     30      2      Si         -0.00143191    -0.00163669     0.00194231
     31      3      O          -0.00023956    -0.00144859    -0.00018654
     32      3      O           0.00168071     0.00044298    -0.00109395
     33      3      O           0.00051982     0.00047085    -0.00060550
     34      3      O          -0.00140064    -0.00096060     0.00059197
     35      3      O           0.00046196    -0.00174585     0.00036077
     36      3      O           0.00153539    -0.00081372     0.00052577
     37      3      O           0.00054131     0.00073842    -0.00018530
     38      3      O           0.00088915    -0.00089130    -0.00078710
     39      3      O          -0.00218800    -0.00012202    -0.00135314
     40      3      O           0.00057688    -0.00030717    -0.00211149
     41      3      O           0.00008642     0.00022678    -0.00038319
     42      3      O           0.00040082    -0.00121393    -0.00021257
     43      3      O           0.00031548     0.00017113    -0.00013687
     44      3      O          -0.00019901     0.00042518     0.00010060
     45      3      O          -0.00010712    -0.00021973     0.00054488
     46      3      O           0.00139097     0.00029873     0.00067425
     47      1      Ca          0.00007572     0.00038748     0.00063717
     48      1      Ca          0.00027285    -0.00148187     0.00054849
     49      1      Ca          0.00157532     0.00033507    -0.00010110
     50      1      Ca          0.00143158    -0.00135040     0.00131005
     51      1      Ca          0.00030050    -0.00029492    -0.00005827
     52      2      Si          0.04605226    -0.01416677     0.00561841
     53      2      Si          0.00035371     0.00000920    -0.00004309
     54      2      Si          0.00128525     0.00099696    -0.00227187
     55      3      O          -0.00009380     0.00011323    -0.00009451
     56      3      O           0.00299902    -0.00003094     0.00016185
     57      3      O          -0.00020385     0.00008563    -0.00013970
     58      3      O          -0.00043699     0.00041577     0.00029732
     59      3      O           0.00001035     0.00013505    -0.00042995
     60      3      O           0.00078191     0.00148914    -0.00049344
     61      3      O           0.00076084     0.00011865     0.00007125
     62      3      O           0.00308015    -0.00016200     0.00234698
     63      3      O           0.00212013     0.00001927     0.00125213
     64      3      O           0.00270535     0.00007993     0.00154816
     65      3      O          -0.00081271     0.00038489     0.00035217
     66      3      O           0.00147256     0.00176079     0.00025854
     67      3      O          -0.00027447    -0.00044714     0.00013057
     68      3      O           0.00009282    -0.00064796    -0.00001141
     69      3      O          -0.00118872     0.00023144     0.00037171
     70      3      O          -0.00088088    -0.00179267    -0.00127006
     71      1      Ca          0.00145423    -0.00016245     0.00076827
     72      1      Ca         -0.00046565    -0.00054334     0.00018283
     73      1      Ca          0.00003568     0.00037119    -0.00005572
     74      1      Ca          0.00006586    -0.00018039     0.00073653
     75      2      Si         -0.00021856     0.00124662     0.00075941
     76      2      Si          0.00143027     0.00086397     0.00180549
     77      2      Si          0.00018896    -0.00028600     0.00023132
     78      3      O           0.03105954     0.00555375     0.01016697
     79      3      O          -0.00064817     0.00022686    -0.00048804
     80      3      O          -0.00161542    -0.00316051    -0.00218626
     81      3      O           0.00180030     0.00097601    -0.00099395
     82      3      O           0.02071056    -0.02010279    -0.00604934
     83      3      O           0.00006742     0.00054273    -0.00098983
     84      3      O           0.00042330     0.00155249    -0.00192310
     85      3      O          -0.00176188    -0.00055898    -0.00005215
     86      3      O           0.00091168    -0.00136550    -0.00070711
     87      3      O           0.00036437     0.00003073    -0.00010604
     88      3      O           0.00045371     0.00068207    -0.00035588
     89      3      O          -0.00023849     0.00051976     0.00039708
     90      3      O           0.00247144    -0.00083137    -0.00217898
     91      3      O          -0.00002544     0.00090306     0.00030652
     92      3      O           0.00028237    -0.00092348    -0.00044848
     93      3      O           0.00109540    -0.00038722    -0.00001083
     94      1      Ca          0.00075710    -0.00032558    -0.00134022
     95      4      H           0.00010547     0.00116507     0.00028185
     96      4      H          -0.00074601     0.00012016     0.00007676
     97      4      H           0.00012889     0.00000569     0.00002423
     98      4      H          -0.00178151     0.00218681    -0.00003827
     99      4      H          -0.00136866     0.00064436    -0.00080537
    100      4      H          -0.00116861    -0.00085017     0.00045925
    101      4      H           0.00021970     0.00036066    -0.00002934
    102      4      H          -0.00013716     0.00024090     0.00025408
    103      4      H           0.00005973     0.00006675    -0.00015254
    104      4      H           0.00044798     0.00028673    -0.00003405
    105      4      H          -0.00077034     0.00019458    -0.00010323
    106      4      H          -0.00066435    -0.00000004    -0.00027171
    107      4      H          -0.00002602     0.00017139    -0.00068910
    108      4      H          -0.00066955    -0.00035233     0.00014663
    109      4      H           0.00030646     0.00040019     0.00014045
    110      4      H           0.00049717    -0.00069502    -0.00063797
    111      4      H           0.00093654     0.00025271     0.00010755
    112      4      H           0.00026290     0.00007854    -0.00019019
    113      4      H          -0.00069351     0.00017986    -0.00001006
    114      4      H          -0.00079068    -0.00013585    -0.00002548
    115      4      H          -0.00031371     0.00024238    -0.00000533
    116      4      H          -0.00027653     0.00016096    -0.00005832
    117      4      H          -0.00053194     0.00043104     0.00052991
    118      4      H          -0.00012745    -0.00049081     0.00002834
    119      4      H           0.00276920     0.00041354    -0.00003929
    120      4      H           0.00211384    -0.00125755     0.00021612
    121      4      H          -0.00091115     0.00011487    -0.00012258
    122      4      H           0.00099398    -0.00050485    -0.00030607
    123      4      H           0.00056019     0.00125438    -0.00010527
    124      4      H           0.00067339     0.00006363     0.00060002
    125      4      H           0.00052242     0.00002460    -0.00001733
    126      4      H           0.00074000    -0.00021008    -0.00029323
    127      4      H          -0.00003387    -0.00028739     0.00041468
    128      4      H           0.00009793     0.00023874     0.00001165
    129      4      H          -0.00003317     0.00029649    -0.00004764
    130      4      H          -0.00125651    -0.00104279     0.00057971
    131      4      H          -0.00022829     0.00033969     0.00023419
    132      4      H           0.00043671    -0.00021573     0.00013296
    133      4      H           0.00118975     0.00078320     0.00019351
    134      4      H           0.00046615    -0.00051355    -0.00048574
    135      4      H           0.00084220    -0.00039539    -0.00048288
    136      4      H          -0.00006532     0.00019334    -0.00010454
    137      4      H           0.00027967    -0.00040389    -0.00028826
    138      4      H           0.00009936    -0.00006715     0.00008099
 SUM OF ATOMIC FORCES           0.01679185    -0.00090365    -0.00420978     0.01733509

 STRESS| Analytical stress tensor [GPa]
 STRESS|                        x                   y                   z
 STRESS|      x       -1.82870537895E-01  -7.35141202673E-01  -3.68157729090E-01
 STRESS|      y       -7.35141202673E-01   2.65489488698E-01   1.08251488817E-01
 STRESS|      z       -3.68157729090E-01   1.08251488817E-01   3.74516886942E-02
 STRESS| 1/3 Trace                                             4.00235464994E-02
 STRESS| Determinant                                           2.69615132939E-03

 STRESS| Eigenvectors and eigenvalues of the analytical stress tensor [GPa]
 STRESS|                        1                   2                   3
 STRESS| Eigenvalues  -7.96332358911E-01  -3.67978965828E-03   9.20082788068E-01
 STRESS|      x           0.801321184035     -0.029726844259     -0.597495334498
 STRESS|      y           0.525672281241     -0.441784466703      0.726976710573
 STRESS|      z           0.285574881164      0.896628573998      0.338384673911

 OPT| **************************************************************************
 OPT| Step number                                                              1
 OPT| Optimization method                                                   BFGS
 OPT| Total energy [hartree]                                    -1761.2419845662
 OPT| Effective energy change [hartree]                            -0.0168638532
 OPT| Predicted energy change [hartree]                            -0.0121509118
 OPT| Scaling factor                                                0.0000000000
 OPT| Step size                                                     0.0848708084
 OPT| Trust radius                                                  0.3779452266
 OPT| Decrease in energy                                                     YES
 OPT| Used time [s]                                                       38.583
 OPT|
 OPT| Maximum step size                                             0.0848708084
 OPT| Convergence limit for maximum step size                       0.0030000000
 OPT| Maximum step size is converged                                          NO
 OPT|
 OPT| RMS step size                                                 0.0149349252
 OPT| Convergence limit for RMS step size                           0.0015000000
 OPT| RMS step size is converged                                              NO
 OPT|
 OPT| Maximum gradient                                              0.0520516543
 OPT| Convergence limit for maximum gradient                        0.0004500000
 OPT| Maximum gradient is converged                                           NO
 OPT|
 OPT| RMS gradient                                                  0.0047495098
 OPT| Convergence limit for RMS gradient                            0.0003000000
 OPT| RMS gradient is converged                                               NO
 OPT| **************************************************************************
 OPT| Estimated peak process memory after this step [MiB]                    510

 --------------------------
 OPTIMIZATION STEP:      2
 --------------------------

 Number of electrons:                                                        656
 Number of occupied orbitals:                                                328
 Number of molecular orbitals:                                               328

 Number of orbital functions:                                               1460
 Number of independent orbital functions:                                   1460

 Extrapolation method: ASPC


 SCF WAVEFUNCTION OPTIMIZATION

  ----------------------------------- OT ---------------------------------------
  Minimizer      : DIIS                : direct inversion
                                         in the iterative subspace
                                         using   7 DIIS vectors
                                         safer DIIS on
  Preconditioner : FULL_KINETIC        : inversion of T + eS
  Precond_solver : DEFAULT
  stepsize       :    0.15000000                  energy_gap     :    0.20000000
  eps_taylor     :   0.10000E-15                  max_taylor     :             4
  ----------------------------------- OT ---------------------------------------

  Step     Update method      Time    Convergence         Total energy    Change
  ------------------------------------------------------------------------------
     1 OT DIIS     0.15E+00    1.1     0.00021001     -1761.2442076558 -1.76E+03
     2 OT DIIS     0.15E+00    1.7     0.00013904     -1761.2467914082 -2.58E-03
     3 OT DIIS     0.15E+00    1.7     0.00007474     -1761.2488954311 -2.10E-03
     4 OT DIIS     0.15E+00    1.7     0.00004008     -1761.2497988677 -9.03E-04
     5 OT DIIS     0.15E+00    1.7     0.00002499     -1761.2500851232 -2.86E-04
     6 OT DIIS     0.15E+00    1.7     0.00001711     -1761.2501935570 -1.08E-04
     7 OT DIIS     0.15E+00    1.7     0.00001057     -1761.2502526698 -5.91E-05
     8 OT DIIS     0.15E+00    1.7     0.00000670     -1761.2502742700 -2.16E-05
     9 OT DIIS     0.15E+00    1.7     0.00000469     -1761.2502814058 -7.14E-06
    10 OT DIIS     0.15E+00    1.7     0.00000312     -1761.2502851738 -3.77E-06
    11 OT DIIS     0.15E+00    1.7     0.00000203     -1761.2502870253 -1.85E-06
    12 OT DIIS     0.15E+00    1.7     0.00000140     -1761.2502877778 -7.53E-07
    13 OT DIIS     0.15E+00    2.7     0.00000096     -1761.2502881427 -3.65E-07
    14 OT DIIS     0.15E+00    1.7     0.00000062     -1761.2502883255 -1.83E-07
    15 OT DIIS     0.15E+00    1.7     0.00000044     -1761.2502883928 -6.73E-08
    16 OT DIIS     0.15E+00    1.7     0.00000030     -1761.2502884278 -3.50E-08
    17 OT DIIS     0.15E+00    1.7     0.00000022     -1761.2502884423 -1.45E-08
    18 OT DIIS     0.15E+00    1.7     0.00000016     -1761.2502884495 -7.16E-09
    19 OT DIIS     0.15E+00    1.7     0.00000012     -1761.2502884540 -4.58E-09
    20 OT DIIS     0.15E+00    1.7     0.00000009     -1761.2502884561 -2.02E-09

  *** SCF run converged in    20 steps ***


  Electronic density on regular grids:       -655.9999999993        0.0000000007
  Core density on regular grids:              655.9999999997       -0.0000000003
  Total charge density on r-space grids:        0.0000000003
  Total charge density g-space grids:           0.0000000003

  Overlap energy of the core charge distribution:               0.00000061166725
  Self energy of the core charge distribution:              -4144.80997841715816
  Core Hamiltonian energy:                                   1117.33573003153015
  Hartree energy:                                            1613.65178325054785
  Exchange-correlation energy:                               -346.93271051513864
  Dispersion energy:                                           -0.49511341751068

  Total energy:                                             -1761.25028845606266

  outer SCF iter =    1 RMS gradient =   0.88E-07 energy =      -1761.2502884561
  outer SCF loop converged in   1 iterations or   20 steps


 ENERGY| Total FORCE_EVAL ( QS ) energy [a.u.]:            -1761.250288457221814

 ATOMIC FORCES in [a.u.]

 # Atom   Kind   Element          X              Y              Z
      1      1      Ca         -0.00166058     0.00188819     0.00205806
      2      1      Ca          0.00034239    -0.00005159     0.00010879
      3      1      Ca          0.00001999    -0.00032902     0.00017733
      4      1      Ca          0.00183947    -0.00028258     0.00074218
      5      2      Si          0.00014378    -0.00014495    -0.00026219
      6      2      Si         -0.00036981    -0.00237875    -0.00470620
      7      2      Si         -0.00057737    -0.00203828     0.00008448
      8      3      O           0.00723617     0.00092964     0.00269474
      9      3      O           0.00009749    -0.00027391    -0.00038890
     10      3      O          -0.00184557     0.00122754     0.00085847
     11      3      O           0.00339792     0.00065144     0.00001926
     12      3      O          -0.00497377     0.00575580     0.00018820
     13      3      O          -0.00033440     0.00078685    -0.00018316
     14      3      O          -0.00044585     0.00215806     0.00074619
     15      3      O           0.00098939     0.00018363     0.00014041
     16      3      O           0.00002522     0.00112899     0.00010858
     17      3      O           0.00012453     0.00080420     0.00039588
     18      3      O          -0.00351204     0.00003128    -0.00053206
     19      3      O           0.00110004     0.00023610    -0.00015525
     20      3      O          -0.00216491     0.00059442    -0.00199805
     21      3      O           0.00076909    -0.00635320    -0.00120882
     22      3      O           0.00822194     0.00379958    -0.00932028
     23      3      O           0.00067325    -0.00124627    -0.00052462
     24      1      Ca         -0.00101611    -0.00015039     0.00004373
     25      1      Ca         -0.00160477    -0.00043714    -0.00046293
     26      1      Ca         -0.00124019     0.00059158    -0.00220999
     27      1      Ca         -0.00021826    -0.00100172    -0.00031813
     28      2      Si         -0.00362519     0.00252043    -0.00243193
     29      2      Si         -0.00014998    -0.00073647    -0.00028560
     30      2      Si          0.00254026     0.00065968    -0.00016601
     31      3      O           0.00034832     0.00133740    -0.00093110
     32      3      O           0.00188355     0.00071118     0.00005843
     33      3      O          -0.00046640    -0.00023545     0.00058941
     34      3      O          -0.00011674     0.00020314    -0.00156060
     35      3      O          -0.00099422     0.00048995    -0.00038680
     36      3      O          -0.00102950     0.00221408    -0.00098365
     37      3      O          -0.00214678    -0.00103402     0.00176896
     38      3      O          -0.00002629     0.00077242     0.00065332
     39      3      O           0.00251958    -0.00084134     0.00105052
     40      3      O          -0.00268455    -0.00073441     0.00081443
     41      3      O          -0.00079665     0.00011408     0.00049344
     42      3      O          -0.00016481    -0.00014885     0.00051177
     43      3      O           0.00095656    -0.00142694     0.00183616
     44      3      O           0.00171254     0.00058257    -0.00059798
     45      3      O           0.00125866    -0.00067520     0.00040436
     46      3      O          -0.00215416     0.00085106    -0.00079021
     47      1      Ca         -0.00123927     0.00156165     0.00038462
     48      1      Ca          0.00087760     0.00099556     0.00047492
     49      1      Ca          0.00137129     0.00037346    -0.00012296
     50      1      Ca          0.00171552    -0.00107757     0.00116659
     51      1      Ca          0.00014324     0.00048783     0.00008937
     52      2      Si          0.00193486    -0.00424309     0.00215725
     53      2      Si         -0.00071462     0.00153092     0.00011722
     54      2      Si         -0.00046395    -0.00057053    -0.00185338
     55      3      O           0.00062854    -0.00027656     0.00049814
     56      3      O          -0.00574064    -0.00110886     0.00021417
     57      3      O           0.00054156    -0.00009025    -0.00045516
     58      3      O           0.00090297    -0.00113630    -0.00009670
     59      3      O           0.00093876    -0.00014063    -0.00029313
     60      3      O          -0.00145716    -0.00228464     0.00147302
     61      3      O           0.00115570    -0.00045167    -0.00052055
     62      3      O          -0.00286589     0.00158588    -0.00162354
     63      3      O           0.00132565     0.00100191    -0.00019129
     64      3      O           0.00073539     0.00121388     0.00110848
     65      3      O          -0.00008149    -0.00094614    -0.00013255
     66      3      O          -0.00057824     0.00153813     0.00016673
     67      3      O          -0.00240830     0.00022136    -0.00159141
     68      3      O          -0.00015050    -0.00149886    -0.00015327
     69      3      O           0.00105320     0.00084852    -0.00049859
     70      3      O           0.00077338    -0.00382245    -0.00182927
     71      1      Ca          0.00121064    -0.00178973    -0.00197667
     72      1      Ca          0.00005989     0.00037059     0.00026973
     73      1      Ca         -0.00006644    -0.00030557     0.00002172
     74      1      Ca         -0.00104214     0.00002296     0.00049715
     75      2      Si         -0.00091528     0.00032236     0.00062089
     76      2      Si          0.00002653     0.00291921     0.00449054
     77      2      Si          0.00029249     0.00166615     0.00018827
     78      3      O          -0.00428263     0.00124034    -0.00022406
     79      3      O           0.00037042    -0.00013955    -0.00014191
     80      3      O           0.00105469     0.00052526     0.00058654
     81      3      O          -0.00024016    -0.00046521    -0.00141085
     82      3      O           0.00700349    -0.00637000    -0.00268836
     83      3      O           0.00035571    -0.00060440     0.00028585
     84      3      O          -0.00136113    -0.00262745     0.00081680
     85      3      O           0.00273962     0.00013022     0.00039126
     86      3      O          -0.00031744     0.00018882     0.00014397
     87      3      O          -0.00018394    -0.00050549    -0.00027393
     88      3      O           0.00078559    -0.00014073     0.00036497
     89      3      O           0.00016543    -0.00105902    -0.00012377
     90      3      O          -0.00153492    -0.00208234     0.00207937
     91      3      O           0.00172842     0.00202272    -0.00041811
     92      3      O          -0.00309577     0.00038513     0.00542293
     93      3      O          -0.00250628     0.00024327    -0.00098653
     94      1      Ca         -0.00057360    -0.00070917    -0.00008351
     95      4      H           0.00139115    -0.00022046     0.00144919
     96      4      H          -0.00036847     0.00056397     0.00036638
     97      4      H           0.00036543     0.00009029     0.00009814
     98      4      H          -0.00125695     0.00518037     0.00021756
     99      4      H          -0.00073879    -0.00434848     0.00203728
    100      4      H          -0.00565450     0.00053488     0.00615556
    101      4      H           0.00079000     0.00057538     0.00051969
    102      4      H          -0.00005674     0.00000590    -0.00024998
    103      4      H          -0.00019010     0.00089409    -0.00162930
    104      4      H           0.00077377     0.00059405     0.00023211
    105      4      H          -0.00052811    -0.00036338     0.00009435
    106      4      H          -0.00054158     0.00036584    -0.00001180
    107      4      H          -0.00069082    -0.00013885    -0.00004468
    108      4      H          -0.00024010     0.00034037    -0.00045444
    109      4      H           0.00114619    -0.00009508     0.00040501
    110      4      H           0.00103815    -0.00122734     0.00072212
    111      4      H           0.00141841    -0.00007952     0.00130648
    112      4      H           0.00028201     0.00004813    -0.00024691
    113      4      H           0.00025259     0.00067224    -0.00017714
    114      4      H          -0.00050609     0.00026083     0.00007006
    115      4      H          -0.00032004    -0.00055307     0.00059842
    116      4      H          -0.00066630     0.00000921     0.00016620
    117      4      H           0.00003942     0.00104582     0.00081292
    118      4      H          -0.00056412    -0.00069925    -0.00035108
    119      4      H           0.00035947     0.00041975    -0.00192693
    120      4      H           0.00156196     0.00181197    -0.00041078
    121      4      H          -0.00082600     0.00059375     0.00011103
    122      4      H           0.00006126    -0.00158252    -0.00017143
    123      4      H           0.00359219    -0.00146914    -0.00632454
    124      4      H           0.00079694     0.00172008    -0.00067160
    125      4      H           0.00113096    -0.00021618     0.00031041
    126      4      H           0.00073684    -0.00080915     0.00011517
    127      4      H          -0.00005936    -0.00022969     0.00004890
    128      4      H          -0.00001872    -0.00023285    -0.00000261
    129      4      H           0.00076670     0.00050979     0.00032574
    130      4      H          -0.00135216    -0.00028738    -0.00031326
    131      4      H          -0.00028404    -0.00038202    -0.00023492
    132      4      H           0.00048272     0.00023295    -0.00004860
    133      4      H           0.00236535     0.00058484    -0.00075623
    134      4      H           0.00011284     0.00044627     0.00025841
    135      4      H           0.00202015    -0.00027643    -0.00031793
    136      4      H          -0.00034287     0.00036976    -0.00025039
    137      4      H           0.00049861    -0.00000875    -0.00022140
    138      4      H           0.00068873     0.00043428     0.00001783
 SUM OF ATOMIC FORCES           0.00741803     0.00273801    -0.00589337     0.00986183

 STRESS| Analytical stress tensor [GPa]
 STRESS|                        x                   y                   z
 STRESS|      x        8.99607675567E-02  -3.50776365101E-01  -2.92817422926E-02
 STRESS|      y       -3.50776365101E-01   1.90182295081E-01   8.57502445281E-02
 STRESS|      z       -2.92817422926E-02   8.57502445281E-02  -1.29650616445E-02
 STRESS| 1/3 Trace                                             8.90593336645E-02
 STRESS| Determinant                                           2.31043853594E-03

 STRESS| Eigenvectors and eigenvalues of the analytical stress tensor [GPa]
 STRESS|                        1                   2                   3
 STRESS| Eigenvalues  -2.20146381983E-01  -2.06601000675E-02   5.07984483044E-01
 STRESS|      x           0.731198999857      0.233111696828     -0.641098244741
 STRESS|      y           0.660621224750     -0.007660515024      0.750680300740
 STRESS|      z          -0.170081215945      0.972419792740      0.159599895586

 OPT| **************************************************************************
 OPT| Step number                                                              2
 OPT| Optimization method                                                   BFGS
 OPT| Total energy [hartree]                                    -1761.2502884572
 OPT| Effective energy change [hartree]                            -0.0083038910
 OPT| Predicted energy change [hartree]                            -0.0091378509
 OPT| Scaling factor                                                0.0000000000
 OPT| Step size                                                     0.0830113543
 OPT| Trust radius                                                  0.3779452266
 OPT| Decrease in energy                                                     YES
 OPT| Used time [s]                                                       38.723
 OPT|
 OPT| Maximum step size                                             0.0830113543
 OPT| Convergence limit for maximum step size                       0.0030000000
 OPT| Maximum step size is converged                                          NO
 OPT|
 OPT| RMS step size                                                 0.0164680475
 OPT| Convergence limit for RMS step size                           0.0015000000
 OPT| RMS step size is converged                                              NO
 OPT|
 OPT| Maximum gradient                                              0.0093202759
 OPT| Convergence limit for maximum gradient                        0.0004500000
 OPT| Maximum gradient is converged                                           NO
 OPT|
 OPT| RMS gradient                                                  0.0016872656
 OPT| Convergence limit for RMS gradient                            0.0003000000
 OPT| RMS gradient is converged                                               NO
 OPT| **************************************************************************
 OPT| Estimated peak process memory after this step [MiB]                    510

 --------------------------
 OPTIMIZATION STEP:      3
 --------------------------

 Number of electrons:                                                        656
 Number of occupied orbitals:                                                328
 Number of molecular orbitals:                                               328

 Number of orbital functions:                                               1460
 Number of independent orbital functions:                                   1460

 Extrapolation method: ASPC


 SCF WAVEFUNCTION OPTIMIZATION

  ----------------------------------- OT ---------------------------------------
  Minimizer      : DIIS                : direct inversion
                                         in the iterative subspace
                                         using   7 DIIS vectors
                                         safer DIIS on
  Preconditioner : FULL_KINETIC        : inversion of T + eS
  Precond_solver : DEFAULT
  stepsize       :    0.15000000                  energy_gap     :    0.20000000
  eps_taylor     :   0.10000E-15                  max_taylor     :             4
  ----------------------------------- OT ---------------------------------------

  Step     Update method      Time    Convergence         Total energy    Change
  ------------------------------------------------------------------------------
     1 OT DIIS     0.15E+00    1.0     0.00032691     -1761.2384410844 -1.76E+03
     2 OT DIIS     0.15E+00    1.7     0.00020881     -1761.2446057204 -6.16E-03
     3 OT DIIS     0.15E+00    1.7     0.00011033     -1761.2491158458 -4.51E-03
     4 OT DIIS     0.15E+00    1.7     0.00006074     -1761.2509799967 -1.86E-03
     5 OT DIIS     0.15E+00    1.8     0.00003668     -1761.2516485702 -6.69E-04
     6 OT DIIS     0.15E+00    1.7     0.00002536     -1761.2518787502 -2.30E-04
     7 OT DIIS     0.15E+00    1.7     0.00001594     -1761.2520063095 -1.28E-04
     8 OT DIIS     0.15E+00    1.8     0.00001012     -1761.2520557437 -4.94E-05
     9 OT DIIS     0.15E+00    1.7     0.00000706     -1761.2520724105 -1.67E-05
    10 OT DIIS     0.15E+00    1.7     0.00000473     -1761.2520810525 -8.64E-06
    11 OT DIIS     0.15E+00    1.7     0.00000307     -1761.2520854361 -4.38E-06
    12 OT DIIS     0.15E+00    1.7     0.00000213     -1761.2520871619 -1.73E-06
    13 OT DIIS     0.15E+00    1.7     0.00000142     -1761.2520880370 -8.75E-07
    14 OT DIIS     0.15E+00    1.7     0.00000093     -1761.2520884413 -4.04E-07
    15 OT DIIS     0.15E+00    1.7     0.00000066     -1761.2520885891 -1.48E-07
    16 OT DIIS     0.15E+00    1.7     0.00000045     -1761.2520886699 -8.09E-08
    17 OT DIIS     0.15E+00    1.7     0.00000032     -1761.2520887030 -3.30E-08
    18 OT DIIS     0.15E+00    2.6     0.00000024     -1761.2520887185 -1.55E-08
    19 OT DIIS     0.15E+00    1.7     0.00000017     -1761.2520887285 -1.00E-08
    20 OT DIIS     0.15E+00    1.7     0.00000013     -1761.2520887330 -4.50E-09
    21 OT DIIS     0.15E+00    1.7     0.00000010     -1761.2520887354 -2.38E-09

  *** SCF run converged in    21 steps ***


  Electronic density on regular grids:       -655.9999999993        0.0000000007
  Core density on regular grids:              655.9999999997       -0.0000000003
  Total charge density on r-space grids:        0.0000000003
  Total charge density g-space grids:           0.0000000003

  Overlap energy of the core charge distribution:               0.00000060844052
  Self energy of the core charge distribution:              -4144.80997841715816
  Core Hamiltonian energy:                                   1117.31059287630183
  Hartree energy:                                            1613.67012546909359
  Exchange-correlation energy:                               -346.92770369004489
  Dispersion energy:                                           -0.49512558201613

  Total energy:                                             -1761.25208873538372

  outer SCF iter =    1 RMS gradient =   0.96E-07 energy =      -1761.2520887354
  outer SCF loop converged in   1 iterations or   21 steps


 ENERGY| Total FORCE_EVAL ( QS ) energy [a.u.]:            -1761.252088736815494

 ATOMIC FORCES in [a.u.]

 # Atom   Kind   Element          X              Y              Z
      1      1      Ca         -0.00023647     0.00121899     0.00087084
      2      1      Ca         -0.00019533     0.00016236    -0.00036195
      3      1      Ca          0.00014593     0.00006797    -0.00004458
      4      1      Ca         -0.00001037     0.00029793    -0.00055736
      5      2      Si          0.00037007     0.00032863     0.00034431
      6      2      Si          0.00090775    -0.00060116    -0.00420463
      7      2      Si          0.00004045    -0.00066913    -0.00015007
      8      3      O           0.00427060     0.00147482     0.00320257
      9      3      O           0.00049480    -0.00002018    -0.00004106
     10      3      O          -0.00223737     0.00022870    -0.00000615
     11      3      O           0.00142360     0.00032999     0.00154416
     12      3      O          -0.00340925     0.00308647     0.00049123
     13      3      O          -0.00018237     0.00038895    -0.00026286
     14      3      O          -0.00102113     0.00192702     0.00034630
     15      3      O           0.00088633    -0.00003331     0.00001113
     16      3      O          -0.00042183    -0.00028321    -0.00016988
     17      3      O          -0.00022673     0.00017258     0.00050499
     18      3      O           0.00122370    -0.00091499     0.00030324
     19      3      O           0.00001449     0.00079046     0.00038597
     20      3      O          -0.00185421     0.00051188    -0.00032404
     21      3      O           0.00105302    -0.00257772     0.00013726
     22      3      O           0.00426083    -0.00070371    -0.00350339
     23      3      O           0.00021633    -0.00015273     0.00000852
     24      1      Ca         -0.00024574     0.00006162     0.00025870
     25      1      Ca         -0.00019299    -0.00025414     0.00092965
     26      1      Ca          0.00038986     0.00019844    -0.00039854
     27      1      Ca         -0.00017949     0.00019543     0.00050954
     28      2      Si         -0.00039294     0.00357876    -0.00003390
     29      2      Si         -0.00034348     0.00045177     0.00043017
     30      2      Si         -0.00148978    -0.00123490     0.00165982
     31      3      O           0.00043318    -0.00068911     0.00045962
     32      3      O           0.00075941     0.00033617    -0.00029353
     33      3      O           0.00049911    -0.00064364    -0.00005090
     34      3      O          -0.00059447    -0.00033738    -0.00054380
     35      3      O          -0.00059479    -0.00038103     0.00026232
     36      3      O           0.00031946     0.00048360    -0.00114786
     37      3      O           0.00052910     0.00044396    -0.00077677
     38      3      O          -0.00009725    -0.00009259     0.00189368
     39      3      O          -0.00100903     0.00100692    -0.00013536
     40      3      O           0.00049322     0.00012852    -0.00201241
     41      3      O          -0.00081708     0.00012095    -0.00002764
     42      3      O          -0.00100011     0.00073593    -0.00060594
     43      3      O           0.00136393    -0.00099971     0.00119349
     44      3      O           0.00005912    -0.00025760     0.00054552
     45      3      O          -0.00000213     0.00005285    -0.00030702
     46      3      O           0.00042242     0.00073459     0.00041468
     47      1      Ca         -0.00013600     0.00040628    -0.00004683
     48      1      Ca          0.00055875     0.00005529    -0.00014456
     49      1      Ca          0.00087790     0.00000471    -0.00047141
     50      1      Ca          0.00070285     0.00038705     0.00050768
     51      1      Ca          0.00007809    -0.00026595     0.00012290
     52      2      Si         -0.00111722    -0.00207360    -0.00021193
     53      2      Si          0.00013401    -0.00015756    -0.00065542
     54      2      Si         -0.00018253     0.00023592    -0.00066622
     55      3      O           0.00034570     0.00013582    -0.00015089
     56      3      O          -0.00116900     0.00093569    -0.00095725
     57      3      O           0.00023069     0.00056443    -0.00023494
     58      3      O          -0.00022016     0.00114865     0.00030672
     59      3      O           0.00024814    -0.00009761    -0.00067253
     60      3      O          -0.00081068    -0.00146633     0.00161045
     61      3      O           0.00051010     0.00003612     0.00004910
     62      3      O          -0.00071637     0.00073474    -0.00290990
     63      3      O          -0.00056239    -0.00011422    -0.00052616
     64      3      O           0.00026825    -0.00027419     0.00048689
     65      3      O           0.00034817     0.00043234    -0.00020995
     66      3      O          -0.00017786    -0.00045370     0.00065612
     67      3      O          -0.00106507     0.00003343    -0.00032007
     68      3      O          -0.00010381    -0.00096112    -0.00013255
     69      3      O           0.00039434     0.00018449    -0.00047146
     70      3      O          -0.00005632    -0.00117160    -0.00035991
     71      1      Ca          0.00060705    -0.00079539    -0.00077664
     72      1      Ca         -0.00016403    -0.00019693     0.00012299
     73      1      Ca          0.00006602    -0.00028322    -0.00019582
     74      1      Ca         -0.00005439     0.00007995     0.00059198
     75      2      Si          0.00014383     0.00029975    -0.00034134
     76      2      Si         -0.00063959     0.00126547     0.00408310
     77      2      Si         -0.00032458     0.00045480     0.00043528
     78      3      O          -0.00377390    -0.00219314    -0.00265371
     79      3      O          -0.00005078    -0.00017621    -0.00003551
     80      3      O           0.00160483    -0.00037636    -0.00046726
     81      3      O           0.00007343    -0.00040998    -0.00112001
     82      3      O           0.00439240    -0.00255985    -0.00239244
     83      3      O           0.00031650    -0.00020653     0.00038259
     84      3      O           0.00109384    -0.00106884    -0.00040831
     85      3      O           0.00072939     0.00009226     0.00004016
     86      3      O          -0.00016082     0.00064026     0.00007771
     87      3      O           0.00001975    -0.00000962    -0.00034755
     88      3      O           0.00035161    -0.00013220     0.00008747
     89      3      O          -0.00054122     0.00056689    -0.00020413
     90      3      O           0.00019552    -0.00169365     0.00083351
     91      3      O          -0.00047729    -0.00003712     0.00017099
     92      3      O          -0.00195987    -0.00003041     0.00270477
     93      3      O           0.00055694     0.00065962     0.00051399
     94      1      Ca         -0.00056329    -0.00015055     0.00011382
     95      4      H           0.00100782     0.00003418     0.00028327
     96      4      H          -0.00099691     0.00010778     0.00006015
     97      4      H          -0.00069174     0.00016914    -0.00035342
     98      4      H          -0.00095941     0.00216773     0.00005470
     99      4      H          -0.00102988    -0.00131174     0.00134395
    100      4      H          -0.00313947     0.00155691     0.00297260
    101      4      H           0.00052723     0.00020459     0.00026501
    102      4      H          -0.00016983    -0.00026662    -0.00019326
    103      4      H          -0.00018374     0.00061806    -0.00137291
    104      4      H           0.00046743     0.00030930     0.00014661
    105      4      H          -0.00024833    -0.00023954    -0.00000596
    106      4      H          -0.00020893     0.00020310     0.00002105
    107      4      H          -0.00035856    -0.00003600     0.00014277
    108      4      H          -0.00003310     0.00020385    -0.00010782
    109      4      H          -0.00000764     0.00039478     0.00059709
    110      4      H           0.00030151    -0.00095235    -0.00106483
    111      4      H           0.00069291    -0.00008681     0.00056448
    112      4      H           0.00022646     0.00000257    -0.00031867
    113      4      H           0.00031976     0.00049803    -0.00008577
    114      4      H          -0.00035631     0.00009765     0.00008142
    115      4      H          -0.00010561    -0.00046718     0.00057871
[...]
 flops   421 x    32 x    62          45438361600       0.0%    100.0%      0.0%     
 flops    96 x    32 x    50          46817280000       0.0%    100.0%      0.0%     
 flops     5 x    32 x     5          46990592000       0.0%    100.0%      0.0%     
 flops     5 x    13 x    32          49453747200       0.0%    100.0%      0.0%     
 flops    13 x     5 x    32          49453747200       0.0%    100.0%      0.0%     
 flops   104 x    32 x    50          50718720000       0.0%    100.0%      0.0%     
 flops   390 x    32 x    50          50918400000       0.0%    100.0%      0.0%     
 flops    64 x    32 x    62          51603046400       0.0%    100.0%      0.0%     
 flops    14 x    32 x     5          53825587200       0.0%    100.0%      0.0%     
 flops     5 x    32 x    14          53825587200       0.0%    100.0%      0.0%     
 flops   313 x    32 x    57          54350822400       0.0%    100.0%      0.0%     
 flops   421 x    32 x    50          54965760000       0.0%    100.0%      0.0%     
 flops    14 x    13 x    32          56647019520       0.0%    100.0%      0.0%     
 flops    13 x    14 x    32          56647019520       0.0%    100.0%      0.0%     
 flops   336 x    32 x    57          58344652800       0.0%    100.0%      0.0%     
 flops    14 x    32 x    14          61654763520       0.0%    100.0%      0.0%     
 flops    96 x    32 x    57          62266982400       0.0%    100.0%      0.0%     
 flops    64 x    32 x    50          62423040000       0.0%    100.0%      0.0%     
 flops   104 x    32 x    57          67455897600       0.0%    100.0%      0.0%     
 flops   390 x    32 x    57          67721472000       0.0%    100.0%      0.0%     
 flops   421 x    32 x    57          73104460800       0.0%    100.0%      0.0%     
 flops    96 x    32 x    32          75359846400       0.0%    100.0%      0.0%     
 flops   104 x    32 x    32          81639833600       0.0%    100.0%      0.0%     
 flops    64 x    32 x    57          83022643200       0.0%    100.0%      0.0%     
 flops    64 x    32 x    32         100479795200       0.0%    100.0%      0.0%     
 flops   313 x    32 x    32         201794355200       0.0%    100.0%      0.0%     
 flops     5 x    32 x    13         211030476800       0.0%    100.0%      0.0%     
 flops    13 x    32 x     5         211030476800       0.0%    100.0%      0.0%     
 flops   336 x    32 x    32         216622694400       0.0%    100.0%      0.0%     
 flops    13 x    13 x    32         225014549760       0.0%    100.0%      0.0%     
 flops    14 x    32 x    13         241725818880       0.0%    100.0%      0.0%     
 flops    13 x    32 x    14         241725818880       0.0%    100.0%      0.0%     
 flops   390 x    32 x    32         251437056000       0.0%    100.0%      0.0%     
 flops   421 x    32 x    32         271423078400       0.0%    100.0%      0.0%     
 flops    13 x    32 x    13         947718686720       0.0%    100.0%      0.0%     
 flops inhomo. stacks                813172089600     100.0%      0.0%      0.0%
 flops total                         5.830466E+12      13.9%     86.1%      0.0%
 flops max/rank                    273.794858E+09      15.1%     84.9%      0.0%
 matmuls inhomo. stacks                   1275120     100.0%      0.0%      0.0%
 matmuls total                          399915571       0.3%     99.7%      0.0%
 number of processed stacks              26124010       4.9%     95.1%      0.0%
 average stack size                                     1.0      16.0       0.0
 marketing flops                     6.146229E+12
 -------------------------------------------------------------------------------
 # multiplications                          12501
 max memory usage/rank             535.187456E+06
 # max total images/rank                       13
 # max 3D layers                                1
 # MPI messages exchanged                24701976
 MPI messages size (bytes):
  total size                         1.663053E+12
  min size                           0.000000E+00
  max size                         381.680000E+03
  average size                      67.324695E+03
 MPI breakdown and total messages size (bytes):
             size <=      128            11890251                        0
       128 < size <=     8192              986745               6520379904
      8192 < size <=    32768             1608130              22374003200
     32768 < size <=   131072             5413250             332832096000
    131072 < size <=  4194304             4803600            1300573840000
   4194304 < size <= 16777216                   0                        0
  16777216 < size                               0                        0
 -------------------------------------------------------------------------------

 *** WARNING in dbcsr_mm.F:301 :: Using a non-square number of MPI ranks ***
 *** might lead to poor performance. Used ranks: 52 Suggested: 49 100    ***

 -------------------------------------------------------------------------------
 -                                                                             -
 -                      DBCSR MESSAGE PASSING PERFORMANCE                      -
 -                                                                             -
 -------------------------------------------------------------------------------
 ROUTINE             CALLS      AVE VOLUME [Bytes]
 MP_Bcast              113                     12.
 MP_Allreduce        67387                      9.
 MP_Alltoall         41838                  22686.
 MP_ISend          1122388                  31187.
 MP_IRecv          1084724                  30973.
 -------------------------------------------------------------------------------

 -------------------------------------------------------------------------------
 -                                                                             -
 -                                DBM STATISTICS                               -
 -                                                                             -
 -------------------------------------------------------------------------------
    M  x    N  x    K                                          COUNT     PERCENT
 -------------------------------------------------------------------------------

 -------------------------------------------------------------------------------
 -                                                                             -
 -                                GRID STATISTICS                              -
 -                                                                             -
 -------------------------------------------------------------------------------
 LP    KERNEL             BACKEND                              COUNT     PERCENT
 3     collocate general  CPU                               71378681      22.39%
 4     collocate general  CPU                               68436102      21.47%
 3     integrate general  CPU                               68036077      21.34%
 4     integrate general  CPU                               65004388      20.39%
 2     collocate general  CPU                               19460591       6.10%
 2     integrate general  CPU                               18484691       5.80%
 6     integrate general  CPU                                3474154       1.09%
 7     integrate general  CPU                                3330774       1.04%
 5     integrate general  CPU                                 947192       0.30%
 0     collocate general  CPU                                 243984       0.08%
 -------------------------------------------------------------------------------

 MEMORY| Estimated peak process memory [MiB]                                 511

 -------------------------------------------------------------------------------
 -                                                                             -
 -                         MESSAGE PASSING PERFORMANCE                         -
 -                                                                             -
 -------------------------------------------------------------------------------

 ROUTINE             CALLS      AVE VOLUME [Bytes]
 MP_Group                4
 MP_Bcast             4481                 170558.
 MP_Allreduce        15356                    371.
 MP_Sync                62
 MP_Alltoall         16056                2699541.
 MP_SendRecv        110466                  65127.
 MP_ISendRecv       103581                  68832.
 MP_Wait            200277
 MP_comm_split          25
 MP_ISend            88164                 228839.
 MP_IRecv            88164                 228839.
 -------------------------------------------------------------------------------


 -------------------------------------------------------------------------------
 -                                                                             -
 -                           R E F E R E N C E S                               -
 -                                                                             -
 -------------------------------------------------------------------------------
 
 CP2K version 2024.3, the CP2K developers group (2024).
 CP2K is freely available from https://www.cp2k.org/ .
 
 T. D. Kuehne, M. Iannuzzi, M. Del Ben, V. V. Rybkin, P. Seewald, F. Stein, T. 
 Laino, R. Z. Khaliullin, O. Schuett, F. Schiffmann, D. Golze, J. Wilhelm, S. 
 Chulkov, M. H. Bani-Hashemian, V. Weber, U. Borstnik, M. Taillefumier, A. S. 
 Jakobovits, A. Lazzaro, H. Pabst, T. Mueller, R. Schade, M. Guidon, S. 
 Andermatt, N. Holmberg, G. K. Schenter, A. Hehn, A. Bussy, F. Belleflamme, G. 
 Tabacchi, A. Gloess, M. Lass, I. Bethune, C. J. Mundy, C. Plessl, M. Watkins, 
 J. VandeVondele, M. Krack, J. Hutter.
 J. Chem. Phys. 152, 194103 (2020).
 CP2K: An electronic structure and molecular dynamics software package - 
 Quickstep: Efficient and accurate electronic structure calculations.
 https://doi.org/10.1063/5.0007045

 L. Goerigk, A. Hansen, C. Bauer, S. Ehrlich, A. Najibi, S. Grimme.
 Phys. Chem. Chem. Phys. 19, 32184-32215 (2017).
 A look at the density functional theory zoo with the advanced GMTKN55 database 
 for general main group thermochemistry, kinetics and noncovalent interactions.
 https://doi.org/10.1039/C7CP04913G

 O. Schuett, P. Messmer, J. Hutter, J. VandeVondele.
 Electronic Structure Calculations on Graphics Processing Units, 173-190 (2016).
 GPU-Accelerated Sparse Matrix-Matrix Multiplication for Linear Scaling Density 
 Functional Theory.
 https://doi.org/10.1002/9781118670712.ch8

 A. Heinecke, G. Henry, M. Hutchinson, H. Pabst.
 Proceedings of Intl. Supercomputing Conference, 981-991 (2016).
 LIBXSMM: Accelerating Small Matrix Multiplications by Runtime Code Generation.
 https://doi.org/10.1109/SC.2016.83

 J. Hutter, M. Iannuzzi, F. Schiffmann, J. VandeVondele.
 WIREs Comput Mol Sci. 4, 15-25 (2014).
 CP2K: atomistic simulations of condensed matter systems.
 https://doi.org/10.1002/wcms.1159

 U. Borstnik, J. VandeVondele, V. Weber, J. Hutter.
 Parallel Comput. 40, 47-58 (2014).
 Sparse matrix multiplication: The distributed block-compressed sparse row 
 library.
 https://doi.org/10.1016/j.parco.2014.03.012

 A. Marek, V. Blum, R. Johanni, V. Havu, B. Lang, T. Auckenthaler, A. Heinecke, 
 H. Bungartz, H. Lederer.
 J. Phys. Condens. Matter 26, 213201 (2014).
 The ELPA library: scalable parallel eigenvalue solutions for electronic 
 structure theory and computational science.
 https://doi.org/10.1088/0953-8984/26/21/213201

 S. Grimme, S. Ehrlich, L. Goerigk.
 J. Comput. Chem. 32, 1456 (2011).
 Effect of the damping function in dispersion corrected density functional 
 theory.
 https://doi.org/10.1002/jcc.21759

 S. Grimme, J. Antony, S. Ehrlich, H. Krieg.
 J. Chem. Phys. 132, 154104 (2010).
 A consistent and accurate ab initio parametrization of density functional 
 dispersion correction (DFT-D) for the 94 elements H-Pu.
 https://doi.org/10.1063/1.3382344

 J. P. Perdew, A. Ruzsinszky, G. I. Csonka, O. A. Vydrov, G. E. Scuseria, L. A. 
 Constantin, X. Zhou, K. Burke.
 Phys. Rev. Lett. 100, 136406-136409 (2008).
 Restoring the Density-Gradient Expansion for Exchange in Solids and Surfaces.
 https://doi.org/10.1103/PhysRevLett.100.136406

 J. VandeVondele, J. Hutter.
 J. Chem. Phys. 127, 114105 (2007).
 Gaussian basis sets for accurate calculations on molecular systems in gas and 
 condensed phases.
 https://doi.org/10.1063/1.2770708

 T. D. Kühne, M. Krack, F. R. Mohamed, M. Parrinello.
 Phys. Rev. Lett. 98, 066401 (2007).
 Efficient and accurate Car-Parrinello-like approach to Born-Oppenheimer 
 molecular dynamics.
 https://doi.org/10.1103/PhysRevLett.98.066401

 J. VandeVondele, M. Krack, F. Mohamed, M. Parrinello, T. Chassaing, J. Hutter.
 Comput. Phys. Commun. 167, 103-128 (2005).
 QUICKSTEP: Fast and accurate density functional calculations using a mixed 
 Gaussian and plane waves approach.
 https://doi.org/10.1016/j.cpc.2004.12.014

 M. Krack.
 Theor. Chem. Acc. 114, 145-152 (2005).
 Pseudopotentials for H to Kr optimized for gradient-corrected 
 exchange-correlation functionals.
 https://doi.org/10.1007/s00214-005-0655-y

 M. Frigo, S. G. Johnson.
 Proc. IEEE 93, 216-231 (2005).
 The design and implementation of FFTW3.
 https://doi.org/10.1109/JPROC.2004.840301

 J. Kolafa.
 J. Comput. Chem. 25, 335-342 (2004).
 Time-reversible always stable predictor-corrector method for molecular dynamics 
 of polarizable molecules.
 https://doi.org/10.1002/jcc.10385

 J. VandeVondele, J. Hutter.
 J. Chem. Phys. 118, 4365-4369 (2003).
 An efficient orbital transformation method for electronic structure 
 calculations.
 https://doi.org/10.1063/1.1543154

 C. Hartwigsen, S. Goedecker, J. Hutter.
 Phys. Rev. B 58, 3641-3662 (1998).
 Relativistic separable dual-space Gaussian pseudopotentials from H to Rn.
 https://doi.org/10.1103/PhysRevB.58.3641

 G. Lippert, J. Hutter, M. Parrinello.
 Mol. Phys. 92, 477-487 (1997).
 A hybrid Gaussian and plane wave density functional scheme.
 https://doi.org/10.1080/002689797170220

 S. Goedecker, M. Teter, J. Hutter.
 Phys. Rev. B 54, 1703-1710 (1996).
 Separable dual-space Gaussian pseudopotentials.
 https://doi.org/10.1103/PhysRevB.54.1703

 J. P. Perdew, K. Burke, M. Ernzerhof.
 Phys. Rev. Lett. 77, 3865-3868 (1996).
 Generalized gradient approximation made simple.
 https://doi.org/10.1103/PhysRevLett.77.3865


 -------------------------------------------------------------------------------
 -                                                                             -
 -                                T I M I N G                                  -
 -                                                                             -
 -------------------------------------------------------------------------------
 SUBROUTINE                       CALLS  ASD         SELF TIME        TOTAL TIME
                                MAXIMUM       AVERAGE  MAXIMUM  AVERAGE  MAXIMUM
 CP2K                                 1  1.0    0.013    0.033 1257.430 1257.432
 cp_geo_opt                           1  2.0    0.000    0.000 1257.077 1257.079
 geoopt_bfgs                          1  3.0    0.013    0.017 1257.077 1257.079
 cp_eval_at                          34  4.0    0.006    0.022 1256.039 1256.053
 qs_forces                           33  5.0    0.008    0.008 1230.158 1230.160
 qs_energies                         34  6.0    0.003    0.004 1168.706 1168.721
 scf_env_do_scf                      34  7.0    0.002    0.004 1125.431 1125.652
 scf_env_do_scf_inner_loop          644  8.0    0.016    0.084 1090.436 1090.597
 rebuild_ks_matrix                  677  9.8    0.003    0.004  652.946  653.932
 qs_ks_build_kohn_sham_matrix       677 10.8    0.128    0.139  652.943  653.929
 qs_ks_update_qs_env                680  9.0    0.005    0.008  589.213  590.018
 qs_rho_update_rho_low              678  9.0    0.004    0.005  501.788  502.172
 calculate_rho_elec                 678 10.0    0.352    0.425  501.785  502.169
 sum_up_and_integrate               677 11.8    0.017    0.030  495.231  495.410
 integrate_v_rspace                 677 12.8    0.031    0.043  494.713  495.034
 grid_collocate_task_list           678 11.0  406.062  418.441  406.062  418.441
 grid_integrate_task_list           677 13.8  401.065  414.156  401.065  414.156
 fft_wrap_pw1pw2                  11548 14.2    0.495    0.565  145.487  152.904
 fft_wrap_pw1pw2_250               7483 15.6    7.209    7.487  131.815  138.290
 fft3d_ps                         11548 16.2   55.799   61.826  112.534  121.875
 qs_vxc_create                      677 11.8    0.036    0.046  116.934  119.345
 xc_vxc_pw_create                   677 12.8    3.041    3.626  116.898  119.316
 density_rs2pw                      678 11.0    0.066    0.084   93.403  111.958
 xc_pw_derive                      4062 14.8    0.111    0.144   84.114   92.685
 transfer_rs2pw                    2746 12.0    0.051    0.073   59.231   77.533
 potential_pw2rs                    677 13.8    0.086    0.101   75.494   75.760
 mp_waitany                       88164 15.3   52.086   71.987   52.086   71.987
 transfer_rs2pw_250                 712 12.9    9.763   12.202   50.148   68.388
 mp_alltoall_z22v                 11548 18.2   38.004   64.914   38.004   64.914
 qs_ks_update_qs_env_forces          33  6.0    0.000    0.000   64.054   64.328
 dbcsr_multiply_generic           12501 14.0    0.673    0.775   62.577   63.387
 transfer_pw2rs                    2741 14.8    0.048    0.063   61.944   62.037
 xc_pw_divergence                   677 13.8    0.055    0.069   56.183   61.863
 xc_rho_set_and_dset_create         677 13.8    1.504    1.885   55.490   56.776
 qs_scf_new_mos                     644  9.0    0.004    0.006   55.766   56.629
 qs_scf_loop_do_ot                  644 10.0    0.004    0.005   55.763   56.625
 ot_scf_mini                        644 11.0    0.020    0.021   52.291   53.082
 transfer_pw2rs_250                 710 15.6   24.867   25.635   49.610   50.596
 yz_to_x                           4098 17.4    5.827    7.331   26.205   41.713
 mp_alltoall_d11v                  8978 15.1   18.712   37.296   18.712   37.296
 rs_gather_matrices                 677 13.8    0.127    0.189   18.071   36.786
 ot_mini                            644 12.0    0.005    0.005   35.693   36.524
 multiply_cannon                  12501 15.0    1.434    1.572   32.780   35.197
 init_scf_loop                       36  8.0    0.001    0.001   34.567   34.577
 mp_waitall_1                   1712241 18.0   19.484   34.229   19.484   34.229
 x_to_yz                           4740 17.4    8.337    9.931   24.856   30.190
 qs_ot_get_derivative               644 13.0    0.006    0.007   27.832   28.613
 multiply_cannon_loop             12501 16.0    1.793    2.309   25.966   28.221
 init_scf_run                        34  7.0    0.001    0.002   27.606   27.610
 scf_env_initial_rho_setup           34  8.0    0.000    0.001   27.606   27.609
 wfi_extrapolate                     34  9.0    0.003    0.004   26.702   26.703
 -------------------------------------------------------------------------------

 The number of warnings for this run is : 1
 
 -------------------------------------------------------------------------------
  **** **** ******  **  PROGRAM ENDED AT                 2025-01-16 09:11:52.059
 ***** ** ***  *** **   PROGRAM RAN ON                               ubuntu-GPU2
 **    ****   ******    PROGRAM RAN BY                                       zkm
 ***** **    ** ** **   PROGRAM PROCESS ID                               3482319
  **** **  *******  **  PROGRAM STOPPED IN /home/zkm/CP2K/Generate_dataset/Jenni
                                           te/Elastic/elastic_cp2k/example/epsil
                                           onxy/pos
