     138
 i =        1, E =     -1761.2419845662
 Ca        -0.7322518580        1.3739075169        3.6728970895
 Ca         2.5214474491        4.5794745512        3.2875810142
 Ca        -1.8749146722        4.8559647558        3.9495609039
 Ca         3.4343866058        0.9422485762        3.5245231862
 Si         5.9549624390        5.8087139686        1.9741701520
 Si         6.7061669706        0.6555476850        3.8141502065
 Si         5.5333707202        3.4965874501        3.9317596925
  O         5.0359174325       13.0249249631        2.5940711881
  O         0.3371290666        5.5521172629        3.5385132177
  O         5.4859391324       -0.2982640712        4.3099529665
  O         7.8674735170        0.8610673393        4.9314973754
  O         7.3994124201        0.1875255697        2.3977498689
  O         5.2489084106        4.4606343780        2.6207652139
  O         6.0451832982        2.0679311210        3.3011703907
  O         5.9962213582        5.6783050199        0.3678136708
  O         4.0247439947        3.1814511748        4.4481027417
  O         6.6311151295        4.0987845190        4.9588458909
  O         1.4826986849        2.3199217434        3.3123893801
  O        -1.3865986499        3.1886177157        2.3916949171
  O         4.0074913327        0.8453561624        1.2171493991
  O         4.4830641380       -0.9551604399        9.3162080447
  O         8.2812039540       -1.7300483550        9.4685805154
  O         6.1373969280        1.0180705940        9.3958404337
 Ca         7.6980854561        2.5974889246        6.5887085748
 Ca         4.4401827176       -0.5992607812        6.9386311239
 Ca         8.7504860716       -0.8240336156        6.4389340511
 Ca         3.4813989624        2.9812382723        6.6161405274
 Si         1.0352884868       -1.8112146593        8.3332238382
 Si         0.2860633137        3.4148966796        6.4013409581
 Si         1.4025033640        0.5120804318        6.3502792083
  O        -2.8727928272        4.6517516697        7.6892244212
  O         6.5369223098       -1.5800328940        6.6304588864
  O         1.4870513922        4.3232335536        5.7869754637
  O        -0.9276566258        3.1523694635        5.3698465828
  O        -0.2584052624        3.9991250934        7.8358023734
  O         1.5504334061       -0.3448643911        7.7573577827
  O         1.0357734309        2.0305052264        6.9180517546
  O         0.9871292809       -1.7929752667        9.9418536537
  O         2.9160189650        0.6990394973        5.7894964682
  O         0.2537833892       -0.0754084006        5.3756330904
  O         5.4981065428        1.6321383785        6.9105710744
  O        -1.7299258595        1.0216193048        7.9071330875
  O         3.4916762970        3.7952400742        8.8171527749
  O         2.5405325394        5.2090738156        1.0603850769
  O        -1.3480759420        5.5754716609        0.7000807380
  O         0.9833624692        3.0507009018        0.7162981056
 Ca         9.2879973969        3.3337316420        0.0182313182
 Ca        -3.2163222107        8.2529291601        3.6802198607
 Ca         0.0552051407       11.4488117010        3.2954040339
 Ca        -4.3277139888       11.7246555553        3.9436182129
 Ca         0.9816120017        7.8122473981        3.5144220636
 Si         3.4961310068       12.6818019837        1.9600102739
 Si         4.2510733285        7.5226807511        3.7993609830
 Si         3.0657987315       10.3649894824        3.9354222410
  O         7.4100629601        6.1606618657        2.6054045548
  O        -2.1001604665       12.4305409822        3.5370848200
  O         3.0282618273        6.5849545917        4.3205950309
  O         5.3929485960        7.7267693358        4.9383853020
  O         4.9431534736        7.0477689424        2.3867511194
  O         2.7988405384       11.3399133057        2.6265564406
  O         3.5726020293        8.9346912987        3.3044674940
  O         3.5449389945       12.5408350936        0.3567462128
  O         1.5528398977       10.0550699194        4.4433848983
  O         4.1702547976       10.9682611514        4.9535304186
  O        -0.9883066480        9.1893769789        3.3110593553
  O        -3.8501241238       10.0496494935        2.3892464063
  O         1.5484345091        7.7105979310        1.2102414207
  O         1.9858655607        5.8784840983        9.2613295327
  O         5.8158479626        5.1391363100        9.4492795187
  O         3.6437591022        7.8489106257        9.4072808263
 Ca         5.2182222450        9.4777031505        6.5946259521
 Ca         1.9888354725        6.2705497763        6.9087061105
 Ca         6.3022070681        6.0469308664        6.4307492134
 Ca         1.0280972793        9.8487631506        6.6092886479
 Si        -1.4294198235        5.0598070681        8.3197002916
 Si        -2.1666665214       10.2821297712        6.3839429141
 Si        -1.0694161798        7.3795786264        6.3554745608
  O        -5.2975652822       11.5282014527        7.6969931680
  O         4.1083722974        5.2946943541        6.6244608227
  O        -0.9652508306       11.2107671981        5.8014760741
  O        -3.3943049956       10.0155207844        5.3732890534
  O        -2.7139859941       10.8539397424        7.8243016208
  O        -0.9114405481        6.5320519631        7.7633399087
  O        -1.4340014801        8.8995602147        6.9215081151
  O        -1.4652643133        5.0776618976        9.9309211501
  O         0.4379881155        7.5734511003        5.7835952295
  O        -2.2106281992        6.7948668869        5.3697363069
  O         3.0322114310        8.5040181495        6.9133792970
  O        -4.2009889718        7.8843957227        7.9059683972
  O         1.0402803063       10.6695353198        8.8218180198
  O         0.0692400803       12.0724793117        1.0630248865
  O        -3.8213371865       12.4468337898        0.6792387989
  O        -1.4853539396        9.9161790915        0.7142872399
 Ca         6.8096924151       10.2138425670        0.0277172157
  H         3.1625903185        0.8692665268        0.5889694615
  H         4.6673903704        1.3548526514        0.6616046055
  H         5.1645843476       -0.2246041415        9.5284325087
  H         4.9801846289       -1.8454620147        9.2901885414
  H         8.0927708457       -2.5844533669        9.9867011231
  H         9.0733627632       -1.9686386228        8.8579512456
  H         5.6637123486        1.8236255111        9.9107211015
  H         6.0066707397        1.2237504710        8.4156976875
  H         3.8901372148        3.2827590440        9.6407283054
  H         4.2376950025        4.4468193652        8.6842021955
  H         1.9442365900        4.5260146101        0.6441013116
  H         2.1154473561        6.1157144389        0.9698655583
  H        -2.0564133541        5.8426503302        1.3576684103
  H        -1.0179245363        6.4502409134        0.3056575389
  H         1.0547899694        2.8042542463        1.6844908472
  H         1.4148079388        2.2027094078        0.2669240895
  H         0.7003548307        7.7365740145        0.5843187031
  H         2.1934886384        8.2240105426        0.6459105001
  H         2.6615689462        6.6104209075        9.4942030295
  H         2.5097691235        5.0083174297        9.2453783899
  H         5.6360760420        4.2850987405        9.9873983003
  H         6.6205105931        4.8944713194        8.8771320050
  H         3.1874313201        8.6667235106        9.9181378268
  H         3.5361546167        8.0770090332        8.4304312553
  H         1.4396117092       10.1519125063        9.6452108105
  H         1.7898448446       11.3100571483        8.6690030836
  H        -0.5267559771       11.3911106702        0.6442926832
  H        -0.3431589615       12.9875686176        0.9732872259
  H        -4.5151392086       12.7075626037        1.3664666681
  H        -3.4751146358       13.3164922010        0.3001717120
  H        -1.4162330555        9.6743921491        1.6839019242
  H        -1.0541824703        9.0682212038        0.2643051663
  H         0.5616421128        5.3505630130        4.4809607870
  H         1.3446754006        2.7065653179        4.2063799003
  H        -0.5339514365        3.6813804861        2.3943375034
  H         6.3990596820       -1.3357684022        5.6797290569
  H         5.6961142992        1.2390689012        6.0291775933
  H        -0.8070201119        1.3535637006        7.9391270599
  H        -1.9119678384       12.2250601843        4.4867403583
  H        -1.1261757793        9.5731446071        4.2061813141
  H        -3.0051326444       10.5551423251        2.3927466184
  H         3.9412046879        5.5200039534        5.6753741283
  H         3.2304356153        8.1252153902        6.0261282044
  H        -3.2797143348        8.2207773935        7.9442791795
     138
 i =        2, E =     -1761.2502884572
 Ca        -0.7441631631        1.3631421541        3.6634921811
 Ca         2.5248110540        4.5807838915        3.2882600171
 Ca        -1.8771752864        4.8526439944        3.9486194924
 Ca         3.4261615972        0.9451092216        3.5209189840
 Si         5.9544253121        5.8096023322        1.9758133010
 Si         6.6966472708        0.6544243543        3.8115377146
 Si         5.5324827765        3.5001208229        3.9359582642
  O         4.9919897158       13.0187881005        2.5833839237
  O         0.3338337742        5.5467328992        3.5388994964
  O         5.4725235515       -0.2902082757        4.3163636030
  O         7.8446243665        0.8481927881        4.9437992930
  O         7.3763907079        0.1928277917        2.3840834604
  O         5.2428855818        4.4671511934        2.6278349374
  O         6.0449518523        2.0717339492        3.3057793792
  O         6.0120166117        5.6779321395        0.3703994610
  O         4.0246811371        3.1816278784        4.4525652185
  O         6.6329718513        4.1025006879        4.9607669980
  O         1.4902989344        2.3213355698        3.3134029506
  O        -1.3756084384        3.1816996747        2.3907199291
  O         4.0022197948        0.8430433103        1.2169401212
  O         4.4707665674       -0.9399333240        9.3233109801
  O         8.2570111740       -1.7306340589        9.4598262826
  O         6.1404492090        1.0211539581        9.3940597403
 Ca         7.6925039469        2.5989208181        6.5882846995
 Ca         4.4253680110       -0.6042292941        6.9388457645
 Ca         8.7361854188       -0.8191072623        6.4478528087
 Ca         3.4810836177        2.9849245256        6.6165938897
 Si         0.9945543547       -1.8074261871        8.3400297852
 Si         0.2856986256        3.4195392214        6.3998869768
 Si         1.3899692006        0.5064181647        6.3577617439
  O        -2.8747557628        4.6439925659        7.6917996654
  O         6.5284783785       -1.5830198176        6.6289431145
  O         1.4853950150        4.3275814245        5.7813236490
  O        -0.9377469071        3.1466750415        5.3802797253
  O        -0.2541796332        3.9952687721        7.8405145003
  O         1.5495765847       -0.3579056921        7.7596354240
  O         1.0435585214        2.0362388118        6.9121142549
  O         0.9697936699       -1.7976126306        9.9468873595
  O         2.8980905799        0.6970340094        5.7834383097
  O         0.2557541975       -0.0771633717        5.3636763301
  O         5.4978180318        1.6351163671        6.9093829400
  O        -1.7248399329        1.0152373944        7.9062482056
  O         3.4969875247        3.7965570269        8.8163319480
  O         2.5325330682        5.2103671146        1.0620086079
  O        -1.3528623925        5.5729501359        0.7011266520
  O         1.0001672907        3.0525598865        0.7189904123
 Ca         9.2969642744        3.3319176950        0.0214185497
 Ca        -3.2148321310        8.2429408748        3.6829052712
 Ca         0.0723332312       11.4505689130        3.2984564870
 Ca        -4.3123928827       11.7228452676        3.9421124985
 Ca         0.9844746902        7.8091630210        3.5133158409
 Si         3.5337191868       12.6817242911        1.9585881558
 Si         4.2525860127        7.5230560825        3.7983170642
 Si         3.0846853085       10.3733114407        3.9329871674
  O         7.4089067825        6.1612067368        2.6067187344
  O        -2.0614414675       12.4333587260        3.5357522104
  O         3.0271034352        6.5875416781        4.3182247614
  O         5.3905112156        7.7308894390        4.9407812513
  O         4.9413862324        7.0491417444        2.3834682408
  O         2.8170704319       11.3549401418        2.6289209767
  O         3.5800888893        8.9381333919        3.3035872075
  O         3.5840171662       12.5376128644        0.3593821571
  O         1.5750227127       10.0566611021        4.4485056631
  O         4.1916671832       10.9658618270        4.9569410493
  O        -0.9874179868        9.1901753555        3.3098505218
  O        -3.8376320030       10.0540398469        2.3896041986
  O         1.5497659033        7.7095587950        1.2097670083
  O         1.9800963815        5.8749958223        9.2617415595
  O         5.8060202135        5.1403020248        9.4481871813
  O         3.6325435615        7.8395678989        9.4020247405
 Ca         5.2296446558        9.4820870090        6.6050452688
 Ca         1.9855380073        6.2662021896        6.9114291291
 Ca         6.3018291704        6.0503366702        6.4306958665
 Ca         1.0370392899        9.8448865227        6.6084588862
 Si        -1.4297561781        5.0576383003        8.3190406383
 Si        -2.1596915111       10.2848593657        6.3896161925
 Si        -1.0642826478        7.3776873427        6.3515941878
  O        -5.2545050637       11.5290037509        7.7011592537
  O         4.1024508950        5.2988974579        6.6218307159
  O        -0.9637235238       11.2014499132        5.7851585839
  O        -3.3806681234       10.0212027749        5.3717321810
  O        -2.6934231721       10.8527337329        7.8384587640
  O        -0.9141670805        6.5311237627        7.7604169814
  O        -1.4192210003        8.9029459729        6.9104668228
  O        -1.4797582181        5.0720861738        9.9303891400
  O         0.4442576234        7.5636382970        5.7792366984
  O        -2.2088135353        6.7948752809        5.3691446275
  O         3.0364282525        8.5083640207        6.9094658819
  O        -4.2017314147        7.8887675198        7.9078101201
  O         1.0682889826       10.6673110559        8.8180812373
  O         0.0638607049       12.0690534647        1.0660787026
  O        -3.8288874096       12.4460975563        0.6656428966
  O        -1.4713095416        9.9160091697        0.7148573772
 Ca         6.8198607197       10.2141166249        0.0190976520
  H         3.1569936967        0.8809472009        0.5869642026
  H         4.6626918952        1.3534702778        0.6630600727
  H         5.1646077236       -0.2195118102        9.5296944593
  H         4.9593967548       -1.8384247821        9.2877548190
  H         8.0698303980       -2.5781051339        9.9804668762
  H         9.0557002496       -1.9739426211        8.8483333391
  H         5.6648066686        1.8242660102        9.9087866921
  H         6.0044994032        1.2270347757        8.4149505737
  H         3.8952212376        3.2831174474        9.6419792544
  H         4.2413898792        4.4495219313        8.6835073854
  H         1.9376255453        4.5280020190        0.6434083302
  H         2.1092448587        6.1168439409        0.9672008570
  H        -2.0606431521        5.8455792149        1.3552497873
  H        -1.0225648171        6.4463835238        0.3061483144
  H         1.0579174154        2.8062587917        1.6878008436
  H         1.4183497351        2.2011643404        0.2642704792
  H         0.7017955001        7.7389661739        0.5806716345
  H         2.1962150956        8.2230644138        0.6467592081
  H         2.6530146207        6.6088044997        9.4945839542
  H         2.5040460254        5.0049630585        9.2454770179
  H         5.6322850261        4.2872028125        9.9881665647
  H         6.6146217822        4.8973016902        8.8791090269
  H         3.1857538440        8.6599122311        9.9163807241
  H         3.5335603317        8.0743828675        8.4263351218
  H         1.4735612466       10.1565939776        9.6479639742
  H         1.8235855779       11.2972841487        8.6647306881
  H        -0.5334485067       11.3907886667        0.6442063870
  H        -0.3302881754       12.9917045040        0.9697885341
  H        -4.5054797342       12.7174581661        1.3744210484
  H        -3.4606170823       13.3134136647        0.3059025088
  H        -1.4120437627        9.6741939033        1.6849687939
  H        -1.0465586923        9.0680434480        0.2621480709
  H         0.5607845000        5.3485091903        4.4818898268
  H         1.3453584992        2.7085223967        4.2060660137
  H        -0.5304800551        3.6859495921        2.3938198619
  H         6.3885715243       -1.3444717647        5.6783129432
  H         5.6950540840        1.2409738562        6.0289276423
  H        -0.8037053446        1.3513550095        7.9412652247
  H        -1.9028732882       12.2324398220        4.4924657109
  H        -1.1229362881        9.5703673243        4.2057641473
  H        -2.9922594151       10.5564046100        2.3889501225
  H         3.9401790289        5.5224896898        5.6718797400
  H         3.2325243442        8.1219824673        6.0249224794
  H        -3.2786029902        8.2190100202        7.9461415053
     138
 i =        3, E =     -1761.2520887368
 Ca        -0.7519104174        1.3700348466        3.6723839183
 Ca         2.5262597576        4.5806964195        3.2881271484
 Ca        -1.8772746541        4.8506914875        3.9492997783
 Ca         3.4331221433        0.9431838529        3.5247334199
 Si         5.9561322094        5.8091237688        1.9761711596
 Si         6.6949022887        0.6516138310        3.8060801263
 Si         5.5314344611        3.5003256834        3.9375500122
  O         5.0026665260       13.0198701601        2.5881993331
  O         0.3343843535        5.5448563118        3.5377634309
  O         5.4653478427       -0.2827633721        4.3186149122
  O         7.8496379150        0.8483552741        4.9333804477
  O         7.3694614063        0.1938904910        2.3756578993
  O         5.2414527750        4.4691257268        2.6300968065
  O         6.0461934491        2.0733489465        3.3080822891
  O         6.0173292991        5.6781048372        0.3707193098
  O         4.0230275978        3.1859859620        4.4538451013
  O         6.6320004581        4.1054255021        4.9611201624
  O         1.4747470675        2.3213648383        3.3110049854
  O        -1.3702231190        3.1828600646        2.3894981638
  O         3.9988171937        0.8441867850        1.2141603067
  O         4.4669964228       -0.9434846099        9.3190261722
  O         8.2583872244       -1.7250982720        9.4519101782
  O         6.1406531015        1.0181317517        9.3924792668
 Ca         7.6882358705        2.5985361277        6.5881934433
 Ca         4.4192177256       -0.6078970190        6.9378315331
 Ca         8.7291117456       -0.8143834549        6.4379775996
 Ca         3.4797697161        2.9808433502        6.6158109832
 Si         0.9890625093       -1.8103593421        8.3310585516
 Si         0.2833506214        3.4156330613        6.3991226067
 Si         1.3952566535        0.5081265615        6.3532894566
  O        -2.8757369138        4.6497016382        7.6883894566
  O         6.5322876731       -1.5798460471        6.6282831885
  O         1.4827300002        4.3265987962        5.7842077307
  O        -0.9383173808        3.1478049261        5.3757987834
  O        -0.2575249426        3.9970330244        7.8372036568
  O         1.5408973346       -0.3562951528        7.7563264084
  O         1.0343016222        2.0307531503        6.9183919452
  O         0.9684567370       -1.7945363981        9.9390732943
  O         2.9075916841        0.6940752830        5.7869336797
  O         0.2493256599       -0.0777640495        5.3724566994
  O         5.4940824360        1.6346111182        6.9098849491
  O        -1.7237720337        1.0146880335        7.9085881285
  O         3.5002238012        3.7957650665        8.8171203879
  O         2.5363795919        5.2125419302        1.0578549657
  O        -1.3489448783        5.5730852312        0.7039675820
  O         0.9934514166        3.0513791897        0.7172066123
 Ca         9.2929601710        3.3382997496        0.0234636268
 Ca        -3.2107755615        8.2469213698        3.6848895401
 Ca         0.0780151884       11.4536400510        3.2982718672
 Ca        -4.3056326792       11.7172191072        3.9502595912
 Ca         0.9855806780        7.8111100636        3.5132699327
 Si         3.5444143691       12.6816801903        1.9669085355
 Si         4.2539435514        7.5247068997        3.7980520301
 Si         3.0893757380       10.3728629438        3.9314484835
  O         7.4101465187        6.1599868684        2.6089326467
  O        -2.0811223084       12.4291809813        3.5371532487
  O         3.0290316181        6.5875725418        4.3162051881
  O         5.3944316829        7.7251225820        4.9393624270
  O         4.9445748774        7.0496660033        2.3842123791
  O         2.8160173441       11.3563000783        2.6307785451
  O         3.5845173227        8.9390915609        3.2991545122
  O         3.5802852280       12.5378674420        0.3655727510
  O         1.5805076531       10.0597607858        4.4501877939
  O         4.1938870147       10.9694348447        4.9569268053
  O        -0.9872857136        9.1864249251        3.3109628019
  O        -3.8361975122       10.0614224162        2.3892809804
  O         1.5492662381        7.7105725821        1.2095256208
  O         1.9785119003        5.8722413642        9.2618688883
  O         5.8075873707        5.1419643911        9.4491364386
  O         3.6305996102        7.8333057491        9.3992870701
 Ca         5.2357773394        9.4765620114        6.5974425768
 Ca         1.9860059434        6.2674642530        6.9129766413
 Ca         6.3015821848        6.0494153603        6.4306352228
 Ca         1.0338059038        9.8447567261        6.6099476835
 Si        -1.4316130978        5.0590194804        8.3200437053
 Si        -2.1554958169       10.2868478678        6.3929481139
 Si        -1.0643752943        7.3780129727        6.3514783999
  O        -5.2613556658       11.5342858673        7.7011015580
  O         4.1032151711        5.2986692732        6.6203223966
  O        -0.9598068267       11.2034257681        5.7882532949
  O        -3.3744698982       10.0213332536        5.3720412686
  O        -2.6830032578       10.8483498715        7.8442935278
  O        -0.9127064335        6.5303254333        7.7596192429
  O        -1.4269550483        8.8988383429        6.9145299598
  O        -1.4739947378        5.0723575877        9.9313962163
  O         0.4440808886        7.5647131934        5.7794606429
  O        -2.2082185343        6.7933397910        5.3690851755
  O         3.0399474345        8.5078270570        6.9096441155
  O        -4.1986175862        7.8842248112        7.9078291286
  O         1.0681766226       10.6689827192        8.8192177221
  O         0.0705449478       12.0713280520        1.0627607842
  O        -3.8226314039       12.4468103054        0.6688093293
  O        -1.4794997292        9.9126875291        0.7122805340
 Ca         6.8179340173       10.2109141885        0.0182024063
  H         3.1535495595        0.8811540394        0.5865636185
  H         4.6614376934        1.3565080782        0.6643848674
  H         5.1619813680       -0.2234201487        9.5287836360
  H         4.9629620917       -1.8329089944        9.2881780401
  H         8.0692893824       -2.5758067660        9.9756713261
  H         9.0560596811       -1.9806489710        8.8559602785
  H         5.6702517280        1.8240168992        9.9093060468
  H         6.0042187815        1.2271271212        8.4140466548
  H         3.8985208838        3.2831426890        9.6414769650
  H         4.2434745567        4.4508455139        8.6849963348
  H         1.9371737365        4.5290635557        0.6453581144
  H         2.1071915885        6.1170569047        0.9672221572
  H        -2.0623058921        5.8441253662        1.3531798014
  H        -1.0240140200        6.4466561463        0.3043309662
  H         1.0631578958        2.8070295186        1.6859170240
  H         1.4212634497        2.1999207999        0.2698528802
  H         0.7032656492        7.7389390405        0.5819046794
  H         2.1966592930        8.2225389315        0.6460201489
  H         2.6504815264        6.6079719377        9.4932030692
  H         2.5031061397        5.0031801901        9.2457991420
  H         5.6314355499        4.2885906407        9.9888273833
  H         6.6134987730        4.8968291113        8.8780985844
  H         3.1886153484        8.6588712457        9.9167106547
  H         3.5310921869        8.0703340551        8.4242893532
  H         1.4779212012       10.1556141236        9.6436972063
  H         1.8261957708       11.2979160095        8.6635824201
  H        -0.5352213111       11.3959403322        0.6464538620
  H        -0.3307197489       12.9898140204        0.9686217644
  H        -4.5067457635       12.7183452931        1.3628728503
  H        -3.4575480347       13.3152638745        0.3059975806
  H        -1.4068568262        9.6742315400        1.6828591741
  H        -1.0438955265        9.0670131083        0.2640132728
  H         0.5602334298        5.3474849956        4.4814061470
  H         1.3452697399        2.7075814484        4.2061755141
  H        -0.5262271674        3.6888491189        2.3953497569
  H         6.3818988852       -1.3467719578        5.6780040812
  H         5.6932475296        1.2401189846        6.0297036519
  H        -0.8026412376        1.3518129775        7.9412078660
  H        -1.8914101596       12.2359411425        4.4882780875
  H        -1.1219895068        9.5716115188        4.2052263394
  H        -2.9844642046       10.5536700578        2.3871769664
  H         3.9386177817        5.5242528331        5.6711569908
  H         3.2348680371        8.1219965934        6.0244987125
  H        -3.2772576795        8.2201426241        7.9463530169
     138
 i =        4, E =     -1761.2528253191
 Ca        -0.7556797645        1.3813021555        3.6814822532
 Ca         2.5258142114        4.5815523710        3.2865125113
 Ca        -1.8762921405        4.8507839509        3.9495674206
 Ca         3.4347448066        0.9436641794        3.5234821328
 Si         5.9592520516        5.8094531983        1.9764371637
 Si         6.6943692701        0.6510853802        3.7987261435
 Si         5.5290056442        3.5023506680        3.9390102296
  O         5.0101527661       13.0245569539        2.5980000988
  O         0.3372997118        5.5439772984        3.5366232499
  O         5.4563148089       -0.2730731473        4.3148596395
  O         7.8510747964        0.8489789605        4.9276338881
  O         7.3594685458        0.1948770632        2.3645743018
  O         5.2405109207        4.4716719428        2.6308858842
  O         6.0446653438        2.0765604506        3.3103790996
  O         6.0234784365        5.6781398338        0.3711037761
  O         4.0202952277        3.1861129327        4.4534771182
  O         6.6294241744        4.1069539160        4.9635001666
  O         1.4767191592        2.3158454578        3.3128396037
  O        -1.3668232173        3.1888024461        2.3910363664
  O         3.9922768992        0.8469809091        1.2150572238
  O         4.4652011083       -0.9486776505        9.3196062893
  O         8.2625535036       -1.7267070095        9.4474943945
  O         6.1407958135        1.0164382973        9.3914989549
 Ca         7.6850649076        2.5987216173        6.5897414126
 Ca         4.4149410442       -0.6103843201        6.9419232377
 Ca         8.7284842674       -0.8105006677        6.4312675922
 Ca         3.4782265155        2.9806142537        6.6178855090
 Si         0.9818962509       -1.8113946210        8.3257294668
 Si         0.2796653326        3.4155172791        6.3984709336
 Si         1.3905016716        0.5069459169        6.3529619437
  O        -2.8750806527        4.6479599617        7.6899050360
  O         6.5365584598       -1.5773338401        6.6266501587
  O         1.4836703734        4.3221067018        5.7859781222
  O        -0.9402896155        3.1468268197        5.3727434567
  O        -0.2612461221        3.9950701941        7.8372419193
  O         1.5393849981       -0.3575673973        7.7543033187
  O         1.0336052634        2.0314779035        6.9158662346
  O         0.9666879340       -1.7936707515        9.9355950824
  O         2.9034296856        0.6983774627        5.7890351806
  O         0.2493633669       -0.0770593739        5.3647770922
  O         5.4877557148        1.6347591456        6.9093838440
  O        -1.7270306210        1.0202679532        7.9059811473
  O         3.5061989385        3.7946564884        8.8182801783
  O         2.5362625566        5.2126536672        1.0584470630